 Gaussian 16, Revision C.01,
 Gaussian 16:  EM64W-G16RevC.01 30-May-2019

 ----------------------------------------------------------------------
 #p um06/cc-pVDZ guess=mix scf=(tight,novaracc,noincfock,maxcycle=128)
 integral=(grid=ultrafine)
 ----------------------------------------------------------------------

 ------------------------------------
 Olav's radical, triplet state energy
 ------------------------------------
 Symbolic Z-matrix:
 Charge =  0 Multiplicity = 3

                         Standard orientation:
 ---------------------------------------------------------------------
 Center     Atomic      Atomic             Coordinates (Angstroms)
 Number     Number       Type             X           Y           Z
 ---------------------------------------------------------------------
      1          6           0        0.000000    0.000000   -8.320296
      2          6           0        1.091994    0.517304   -7.593572
      3          6           0       -1.091994   -0.517304   -7.593572
      4          6           0        1.091505    0.512427   -6.198112
      5          6           0       -1.091505   -0.512427   -6.198112
      6          6           0        0.000000    0.000000   -5.482307
      7         16           0       -2.567402   -1.167047   -8.344013
      8         16           0       -2.523535   -1.189451   -5.406261
      9         16           0        2.523535    1.189451   -5.406261
     10         16           0        2.567402    1.167047   -8.344013
     11          6           0        4.083818   -0.588014   -6.837957
     12          1           0        4.683504   -0.781649   -7.739467
     13          1           0        4.690505   -0.758813   -5.936905
     14          1           0        3.217488   -1.264806   -6.829787
     15          6           0        3.601995    0.867404   -6.856248
     16          6           0        4.768664    1.861724   -6.853882
     17          1           0        4.389988    2.891764   -6.866569
     18          1           0        5.379986    1.701309   -5.953752
     19          1           0        5.394585    1.686143   -7.740997
     20          6           0       -4.083818    0.588014   -6.837957
     21          1           0       -4.690505    0.758813   -5.936905
     22          1           0       -3.217488    1.264806   -6.829787
     23          1           0       -4.683504    0.781649   -7.739467
     24          6           0       -3.601995   -0.867404   -6.856248
     25          6           0       -4.768664   -1.861724   -6.853882
     26          1           0       -5.379986   -1.701309   -5.953752
     27          1           0       -5.394585   -1.686143   -7.740997
     28          1           0       -4.389988   -2.891764   -6.866569
     29          6           0        0.520375    1.178190  -10.485414
     30          6           0        1.479284    1.055216  -11.510847
     31          6           0        0.145607    2.475143  -10.082947
     32          6           0        2.098668    2.191019  -12.039790
     33         16           0        2.119303   -0.501206  -12.063718
     34          6           0        0.753048    3.604467  -10.644351
     35         16           0       -1.175970    2.813679   -8.948729
     36          6           0        1.744724    3.470098  -11.611369
     37         16           0        3.446810    1.895001  -13.152719
     38          6           0        2.897899    0.197286  -13.577297
     39         16           0        0.150689    5.172583  -10.078790
     40          6           0       -0.548267    4.486292   -8.523031
     41          1           0        2.240186    4.347947  -12.023223
     42          6           0        4.119301   -0.653872  -13.946522
     43          6           0        1.872967    0.251051  -14.714942
     44          6           0       -1.725019    5.359894   -8.072170
     45          6           0        0.536695    4.379797   -7.444624
     46          1           0        3.790624   -1.678982  -14.171730
     47          1           0        4.597048   -0.232595  -14.843136
     48          1           0        4.834875   -0.668869  -13.115399
     49          1           0        1.009568    0.855848  -14.404992
     50          1           0        2.338523    0.704518  -15.602130
     51          1           0        1.536616   -0.769568  -14.949425
     52          1           0       -1.356736    6.369538   -7.838341
     53          1           0       -2.483897    5.414973   -8.862712
     54          1           0       -2.165240    4.927910   -7.161222
     55          1           0        0.931536    5.384098   -7.229103
     56          1           0        0.097527    3.946020   -6.533736
     57          1           0        1.352345    3.727480   -7.789265
     58          6           0        0.000000    0.000000   -9.782858
     59          6           0       -0.520375   -1.178190  -10.485414
     60          6           0       -1.479284   -1.055216  -11.510847
     61          6           0       -0.145607   -2.475143  -10.082947
     62          6           0       -2.098668   -2.191019  -12.039790
     63         16           0       -2.119303    0.501206  -12.063718
     64          6           0       -0.753048   -3.604467  -10.644351
     65         16           0        1.175970   -2.813679   -8.948729
     66          6           0       -1.744724   -3.470098  -11.611369
     67         16           0       -3.446810   -1.895001  -13.152719
     68          6           0       -2.897899   -0.197286  -13.577297
     69         16           0       -0.150689   -5.172583  -10.078790
     70          6           0        0.548267   -4.486292   -8.523031
     71          1           0       -2.240186   -4.347947  -12.023223
     72          6           0       -4.119301    0.653872  -13.946522
     73          6           0       -1.872967   -0.251051  -14.714942
     74          6           0        1.725019   -5.359894   -8.072170
     75          6           0       -0.536695   -4.379797   -7.444624
     76          1           0       -3.790624    1.678982  -14.171730
     77          1           0       -4.597048    0.232595  -14.843136
     78          1           0       -4.834875    0.668869  -13.115399
     79          1           0       -1.009568   -0.855848  -14.404992
     80          1           0       -2.338523   -0.704518  -15.602130
     81          1           0       -1.536616    0.769568  -14.949425
     82          1           0        1.356736   -6.369538   -7.838341
     83          1           0        2.483897   -5.414973   -8.862712
     84          1           0        2.165240   -4.927910   -7.161222
     85          1           0       -0.931536   -5.384098   -7.229103
     86          1           0       -0.097527   -3.946020   -6.533736
     87          1           0       -1.352345   -3.727480   -7.789265
     88          6           0        0.627607    1.039385   -0.690813
     89          6           0       -0.627607   -1.039385   -0.690813
     90          6           0        0.628465    1.040098    0.697803
     91          1           0        1.107930    1.840208   -1.246975
     92          6           0       -0.628465   -1.040098    0.697803
     93          1           0       -1.107930   -1.840208   -1.246975
     94          1           0        1.112275    1.842305    1.253748
     95          1           0       -1.112275   -1.842305    1.253748
     96          6           0        0.000000    0.000000    5.494731
     97          6           0        1.124418   -0.435498    6.210104
     98          6           0       -1.124418    0.435498    6.210104
     99          6           0        1.123474   -0.443051    7.606081
    100         16           0        2.596656   -1.019321    5.419139
    101          6           0       -1.123474    0.443051    7.606081
    102         16           0       -2.596656    1.019321    5.419139
    103          6           0        0.000000    0.000000    8.331191
    104         16           0        2.633631   -1.001072    8.359390
    105          6           0        3.651786   -0.641147    6.873393
    106         16           0       -2.633631    1.001072    8.359390
    107          6           0       -3.651786    0.641147    6.873393
    108          6           0        0.000000    0.000000    9.796594
    109          6           0        4.052525    0.838536    6.859046
    110          6           0        4.872309   -1.568624    6.870780
    111          6           0       -4.052525   -0.838536    6.859046
    112          6           0       -4.872309    1.568624    6.870780
    113          6           0        0.570861   -1.157441   10.492788
    114          6           0       -0.570861    1.157441   10.492788
    115          1           0        4.639755    1.062971    7.761530
    116          1           0        4.650798    1.044258    5.959024
    117          1           0        3.150695    1.466766    6.850576
    118          1           0        4.551732   -2.618097    6.881644
    119          1           0        5.474785   -1.373211    5.971487
    120          1           0        5.486592   -1.359605    7.758709
    121          1           0       -4.650798   -1.044258    5.959024
    122          1           0       -3.150695   -1.466766    6.850576
    123          1           0       -4.639755   -1.062971    7.761530
    124          1           0       -5.474785    1.373211    5.971487
    125          1           0       -5.486592    1.359605    7.758709
    126          1           0       -4.551732    2.618097    6.881644
    127          6           0        1.521531   -0.999322   11.521511
    128          6           0        0.264181   -2.467303   10.073065
    129          6           0       -1.521531    0.999322   11.521511
    130          6           0       -0.264181    2.467303   10.073065
    131          6           0        2.203533   -2.108450   12.029999
    132         16           0        2.071620    0.580184   12.105486
    133          6           0        0.934209   -3.570590   10.613887
    134         16           0       -1.042931   -2.860692    8.939713
    135          6           0       -2.203533    2.108450   12.029999
    136         16           0       -2.071620   -0.580184   12.105486
    137          6           0       -0.934209    3.570590   10.613887
    138         16           0        1.042931    2.860692    8.939713
    139          6           0        1.920373   -3.397903   11.580261
    140         16           0        3.536037   -1.756745   13.146017
    141          6           0        2.889100   -0.103727   13.606156
    142         16           0        0.417937   -5.159701   10.021350
    143          6           0       -0.319651   -4.483947    8.478454
    144          6           0       -1.920373    3.397903   11.580261
    145         16           0       -3.536037    1.756745   13.146017
    146          6           0       -2.889100    0.103727   13.606156
    147         16           0       -0.417937    5.159701   10.021350
    148          6           0        0.319651    4.483947    8.478454
    149          1           0        2.465359   -4.253522   11.976073
    150          6           0        4.058639    0.808395   13.997612
    151          6           0        1.867202   -0.242951   14.739266
    152          6           0       -1.443777   -5.413672    8.007924
    153          6           0        0.757187   -4.291395    7.404147
    154          1           0       -2.465359    4.253522   11.976073
    155          6           0       -4.058639   -0.808395   13.997612
    156          6           0       -1.867202    0.242951   14.739266
    157          6           0        1.443777    5.413672    8.007924
    158          6           0       -0.757187    4.291395    7.404147
    159          1           0        3.671037    1.807708   14.242772
    160          1           0        4.557303    0.396061   14.887080
    161          1           0        4.774638    0.881752   13.169988
    162          1           0        1.038663   -0.886229   14.411275
    163          1           0        2.355821   -0.692564   15.616081
    164          1           0        1.474485    0.750826   14.999366
    165          1           0       -1.017567   -6.395140    7.751764
    166          1           0       -2.197428   -5.530075    8.796307
    167          1           0       -1.909011   -4.988181    7.106483
    168          1           0        1.208605   -5.265834    7.165567
    169          1           0        0.294708   -3.861098    6.502865
    170          1           0        1.535106   -3.601883    7.765200
    171          1           0       -3.671037   -1.807708   14.242772
    172          1           0       -4.557303   -0.396061   14.887080
    173          1           0       -4.774638   -0.881752   13.169988
    174          1           0       -1.038663    0.886229   14.411275
    175          1           0       -2.355821    0.692564   15.616081
    176          1           0       -1.474485   -0.750826   14.999366
    177          1           0        1.017567    6.395140    7.751764
    178          1           0        2.197428    5.530075    8.796307
    179          1           0        1.909011    4.988181    7.106483
    180          1           0       -1.208605    5.265834    7.165567
    181          1           0       -0.294708    3.861098    6.502865
    182          1           0       -1.535106    3.601883    7.765200
    183          6           0        0.000000    0.000000   -1.391859
    184          6           0        0.000000    0.000000    1.398980
    185          6           0        0.000000    0.000000    2.843793
    186          6           0        0.000000    0.000000   -2.833840
    187          6           0        0.000000    0.000000   -4.045063
    188          6           0        0.000000    0.000000    4.054643
 ---------------------------------------------------------------------

 SCF Done:  E(UM06) =  -12803.0496811     A.U. after   30 cycles

 Alpha virt. eigenvalues --    0.65475   0.65573   0.65597   0.65664   0.65673
 Alpha virt. eigenvalues --    0.65771   0.65792   0.65931   0.65979   0.66430
 Alpha virt. eigenvalues --    0.66491   0.66574   0.66614   0.66651   0.66987

  Beta  occ. eigenvalues --  -89.05962 -89.05962 -89.05947 -89.05947 -89.05841
  Beta  occ. eigenvalues --  -89.05841 -89.05813 -89.05813 -89.05809 -89.05809
  Beta  occ. eigenvalues --  -89.05805 -89.05805 -89.05803 -89.05803 -89.05756
  Beta  occ. eigenvalues --  -89.05756 -89.05733 -89.05733 -89.05711 -89.05711
  Beta  occ. eigenvalues --  -89.05572 -89.05572 -89.05557 -89.05557 -10.32530
  Beta  occ. eigenvalues --  -10.32529 -10.32525 -10.32525 -10.32219 -10.32219
  Beta  occ. eigenvalues --  -10.32199 -10.32199 -10.32097 -10.32097 -10.32062
  Beta  occ. eigenvalues --  -10.32061 -10.29258 -10.29252 -10.29226 -10.29220
  Beta  occ. eigenvalues --  -10.29094 -10.29093 -10.29093 -10.29093 -10.29033
  Beta  occ. eigenvalues --  -10.29033 -10.29024 -10.29024 -10.29024 -10.28991
  Beta  occ. eigenvalues --  -10.28960 -10.28960 -10.28947 -10.28947 -10.28872
  Beta  occ. eigenvalues --  -10.28868 -10.28868 -10.28861 -10.28857 -10.28855
  Beta  occ. eigenvalues --  -10.28850 -10.28850 -10.28796 -10.28795 -10.28167
  Beta  occ. eigenvalues --  -10.28165 -10.28148 -10.28145 -10.28072 -10.28048
  Beta  occ. eigenvalues --  -10.28034 -10.27994 -10.26903 -10.26902 -10.26902
  Beta  occ. eigenvalues --  -10.26902 -10.26890 -10.26890 -10.26831 -10.26829
  Beta  occ. eigenvalues --  -10.26359 -10.26359 -10.26355 -10.26355 -10.26235
  Beta  occ. eigenvalues --  -10.26208 -10.26183 -10.26183 -10.26135 -10.26135
  Beta  occ. eigenvalues --  -10.26132 -10.26132 -10.26130 -10.26130 -10.26037
  Beta  occ. eigenvalues --  -10.26009 -10.25544 -10.25544 -10.25538 -10.25537
  Beta  occ. eigenvalues --  -10.25118 -10.25118 -10.25116 -10.25116 -10.24631
  Beta  occ. eigenvalues --  -10.24631 -10.24599 -10.24599  -8.06499  -8.06498
  Beta  occ. eigenvalues --   -8.06488  -8.06488  -8.06443  -8.06443  -8.06436
  Beta  occ. eigenvalues --   -8.06435  -8.06385  -8.06385  -8.06337  -8.06337
  Beta  occ. eigenvalues --   -8.06336  -8.06336  -8.06308  -8.06308  -8.06278
  Beta  occ. eigenvalues --   -8.06277  -8.06259  -8.06258  -8.06197  -8.06197
  Beta  occ. eigenvalues --   -8.06181  -8.06181  -5.98259  -5.98259  -5.98249
  Beta  occ. eigenvalues --   -5.98248  -5.98194  -5.98194  -5.98186  -5.98186
  Beta  occ. eigenvalues --   -5.98135  -5.98135  -5.98097  -5.98097  -5.98086
  Beta  occ. eigenvalues --   -5.98086  -5.98067  -5.98067  -5.98035  -5.98035
  Beta  occ. eigenvalues --   -5.98016  -5.98015  -5.97945  -5.97945  -5.97929
  Beta  occ. eigenvalues --   -5.97929  -5.97904  -5.97904  -5.97893  -5.97893
  Beta  occ. eigenvalues --   -5.97850  -5.97850  -5.97843  -5.97843  -5.97795
  Beta  occ. eigenvalues --   -5.97795  -5.97744  -5.97744  -5.97744  -5.97743
  Beta  occ. eigenvalues --   -5.97714  -5.97714  -5.97691  -5.97691  -5.97672
  Beta  occ. eigenvalues --   -5.97672  -5.97605  -5.97605  -5.97589  -5.97589
  Beta  occ. eigenvalues --   -5.97203  -5.97203  -5.97191  -5.97191  -5.97144
  Beta  occ. eigenvalues --   -5.97144  -5.97136  -5.97136  -5.97093  -5.97093
  Beta  occ. eigenvalues --   -5.97046  -5.97046  -5.97044  -5.97044  -5.97017
  Beta  occ. eigenvalues --   -5.97017  -5.96973  -5.96973  -5.96953  -5.96953
  Beta  occ. eigenvalues --   -5.96900  -5.96900  -5.96884  -5.96884  -0.92549
  Beta  occ. eigenvalues --   -0.92528  -0.91428  -0.91399  -0.91296  -0.91292
  Beta  occ. eigenvalues --   -0.88996  -0.88662  -0.88629  -0.88593  -0.88592
  Beta  occ. eigenvalues --   -0.88580  -0.88562  -0.86033  -0.86013  -0.85006
  Beta  occ. eigenvalues --   -0.84961  -0.84765  -0.84759  -0.83821  -0.83760
  Beta  occ. eigenvalues --   -0.81749  -0.80873  -0.80382  -0.80144  -0.80128
  Beta  occ. eigenvalues --   -0.79538  -0.79527  -0.79524  -0.79503  -0.79460
  Beta  occ. eigenvalues --   -0.79439  -0.77200  -0.76461  -0.76167  -0.76139
  Beta  occ. eigenvalues --   -0.76105  -0.76090  -0.76070  -0.75944  -0.75151
  Beta  occ. eigenvalues --   -0.74604  -0.74139  -0.73768  -0.73733  -0.73733
  Beta  occ. eigenvalues --   -0.73387  -0.72996  -0.72855  -0.71459  -0.71348
  Beta  occ. eigenvalues --   -0.71345  -0.71230  -0.71226  -0.71081  -0.71077
  Beta  occ. eigenvalues --   -0.70943  -0.70912  -0.70887  -0.70877  -0.70845
  Beta  occ. eigenvalues --   -0.70590  -0.70585  -0.70576  -0.70570  -0.68351
  Beta  occ. eigenvalues --   -0.67710  -0.67705  -0.67662  -0.67621  -0.67603
  Beta  occ. eigenvalues --   -0.67599  -0.67555  -0.65257  -0.63137  -0.63119
  Beta  occ. eigenvalues --   -0.62396  -0.62394  -0.62143  -0.58767  -0.58742
  Beta  occ. eigenvalues --   -0.58480  -0.58476  -0.58460  -0.58452  -0.57420
  Beta  occ. eigenvalues --   -0.57406  -0.56948  -0.56917  -0.56766  -0.56756
  Beta  occ. eigenvalues --   -0.56032  -0.55586  -0.55450  -0.55431  -0.55241
  Beta  occ. eigenvalues --   -0.55214  -0.55145  -0.55041  -0.54768  -0.52887
  Beta  occ. eigenvalues --   -0.51472  -0.51429  -0.51031  -0.50867  -0.50780
  Beta  occ. eigenvalues --   -0.50770  -0.50098  -0.49471  -0.48663  -0.48632
  Beta  occ. eigenvalues --   -0.48620  -0.48613  -0.48595  -0.48270  -0.48228
  Beta  occ. eigenvalues --   -0.47508  -0.47498  -0.47325  -0.47314  -0.46581
  Beta  occ. eigenvalues --   -0.46535  -0.46083  -0.46068  -0.45959  -0.45933
  Beta  occ. eigenvalues --   -0.45734  -0.45719  -0.45662  -0.45660  -0.45642
  Beta  occ. eigenvalues --   -0.45632  -0.45423  -0.45420  -0.45399  -0.45369
  Beta  occ. eigenvalues --   -0.45359  -0.45308  -0.45270  -0.45259  -0.45254
  Beta  occ. eigenvalues --   -0.45237  -0.45235  -0.45076  -0.45061  -0.44925
  Beta  occ. eigenvalues --   -0.44845  -0.44561  -0.44554  -0.44180  -0.43881
  Beta  occ. eigenvalues --   -0.43871  -0.43702  -0.43660  -0.43632  -0.43621
  Beta  occ. eigenvalues --   -0.41316  -0.41293  -0.41280  -0.41195  -0.41103
  Beta  occ. eigenvalues --   -0.41071  -0.40981  -0.40949  -0.40911  -0.40879
  Beta  occ. eigenvalues --   -0.40838  -0.40813  -0.40737  -0.40617  -0.40599
  Beta  occ. eigenvalues --   -0.40573  -0.40555  -0.40413  -0.40372  -0.39301
  Beta  occ. eigenvalues --   -0.39127  -0.39124  -0.39086  -0.39083  -0.39078
  Beta  occ. eigenvalues --   -0.39043  -0.38200  -0.38196  -0.38180  -0.38169
  Beta  occ. eigenvalues --   -0.38016  -0.37997  -0.37946  -0.37910  -0.37586
  Beta  occ. eigenvalues --   -0.37561  -0.37448  -0.37446  -0.37143  -0.37021
  Beta  occ. eigenvalues --   -0.36989  -0.36853  -0.36829  -0.36712  -0.36691
  Beta  occ. eigenvalues --   -0.36650  -0.36639  -0.36613  -0.36582  -0.36579
  Beta  occ. eigenvalues --   -0.36545  -0.35991  -0.35666  -0.35601  -0.35571
  Beta  occ. eigenvalues --   -0.35550  -0.35532  -0.35407  -0.35402  -0.35385
  Beta  occ. eigenvalues --   -0.35362  -0.35299  -0.35290  -0.35287  -0.35283
  Beta  occ. eigenvalues --   -0.34987  -0.34783  -0.34532  -0.34509  -0.34505
  Beta  occ. eigenvalues --   -0.34108  -0.34081  -0.34028  -0.33914  -0.33513
  Beta  occ. eigenvalues --   -0.33448  -0.33144  -0.33144  -0.33136  -0.32968
  Beta  occ. eigenvalues --   -0.32954  -0.32897  -0.32739  -0.32721  -0.32264
  Beta  occ. eigenvalues --   -0.32184  -0.31941  -0.31938  -0.31934  -0.31397
  Beta  occ. eigenvalues --   -0.30151  -0.30127  -0.29247  -0.28931  -0.28853
  Beta  occ. eigenvalues --   -0.28593  -0.28024  -0.27749  -0.26429  -0.26396
  Beta  occ. eigenvalues --   -0.26234  -0.26170  -0.25938  -0.25912  -0.25777
  Beta  occ. eigenvalues --   -0.25410  -0.24627  -0.24619  -0.24604  -0.24350
  Beta  occ. eigenvalues --   -0.23984  -0.23534  -0.23390  -0.22266  -0.22264
  Beta  occ. eigenvalues --   -0.22071  -0.21747  -0.20312  -0.20234  -0.19872
  Beta  occ. eigenvalues --   -0.19871  -0.19811  -0.19793
  Beta virt. eigenvalues --   -0.10116  -0.09979  -0.05543  -0.03785  -0.02824
  Beta virt. eigenvalues --   -0.02783  -0.02567  -0.02315  -0.02297  -0.01458
  Beta virt. eigenvalues --   -0.01414  -0.01349  -0.01277  -0.01170  -0.01076

 Mulliken charges and spin densities:
               1          2
     1  C    0.145473  -0.130915
     2  C   -0.085931   0.108006
     3  C   -0.085931   0.108006
     4  C   -0.087661  -0.052663
     5  C   -0.087661  -0.052663
     6  C   -0.128571   0.087911
     7  S    0.090372   0.004352
     8  S    0.070206  -0.003605
     9  S    0.070206  -0.003605
    10  S    0.090372   0.004352
    11  C    0.072271   0.000341
    12  H    0.050794  -0.000028
    13  H    0.046897   0.000050
    14  H    0.053077  -0.000185
    15  C   -0.464970  -0.000647
    16  C    0.020648  -0.000053
    17  H    0.056507  -0.000010
    18  H    0.055995  -0.000089
    19  H    0.059909   0.000004
    20  C    0.072271   0.000341
    21  H    0.046897   0.000050
    22  H    0.053077  -0.000185
    23  H    0.050794  -0.000028
    24  C   -0.464970  -0.000647
    25  C    0.020648  -0.000053
    26  H    0.055995  -0.000089
    27  H    0.059909   0.000004
    28  H    0.056507  -0.000010
    29  C    0.049916  -0.110255
    30  C   -0.050793   0.092444
    31  C   -0.054569   0.094819
    32  C   -0.083845  -0.044862
    33  S    0.090016   0.008232
    34  C   -0.070314  -0.046862
    35  S    0.082381   0.012184
    36  C    0.069473   0.096484
    37  S    0.066551  -0.003108
    38  C   -0.466912  -0.000839
    39  S    0.064236  -0.002337
    40  C   -0.465691  -0.000612
    41  H   -0.000751  -0.004851
    42  C    0.019793   0.000033
    43  C    0.074744   0.000424
    44  C    0.019604   0.000012
    45  C    0.085356   0.000327
    46  H    0.059566  -0.000011
    47  H    0.055062   0.000002
    48  H    0.060129  -0.000022
    49  H    0.040868  -0.000456
    50  H    0.047928  -0.000047
    51  H    0.054176  -0.000010
    52  H    0.056177  -0.000016
    53  H    0.058279  -0.000022
    54  H    0.058008  -0.000004
    55  H    0.044502   0.000084
    56  H    0.048445  -0.000039
    57  H    0.041529  -0.000284
    58  C   -0.183212   0.721239
    59  C    0.049916  -0.110255
    60  C   -0.050793   0.092444
    61  C   -0.054569   0.094819
    62  C   -0.083845  -0.044862
    63  S    0.090016   0.008232
    64  C   -0.070314  -0.046862
    65  S    0.082381   0.012184
    66  C    0.069473   0.096484
    67  S    0.066551  -0.003108
    68  C   -0.466912  -0.000839
    69  S    0.064236  -0.002337
    70  C   -0.465691  -0.000612
    71  H   -0.000751  -0.004851
    72  C    0.019793   0.000033
    73  C    0.074744   0.000424
    74  C    0.019604   0.000012
    75  C    0.085356   0.000327
    76  H    0.059566  -0.000011
    77  H    0.055062   0.000002
    78  H    0.060129  -0.000022
    79  H    0.040868  -0.000456
    80  H    0.047928  -0.000047
    81  H    0.054176  -0.000010
    82  H    0.056177  -0.000016
    83  H    0.058279  -0.000022
    84  H    0.058008  -0.000004
    85  H    0.044502   0.000084
    86  H    0.048445  -0.000039
    87  H    0.041529  -0.000284
    88  C    0.017824   0.008166
    89  C    0.017824   0.008166
    90  C    0.017505  -0.002606
    91  H    0.003196  -0.000349
    92  C    0.017505  -0.002606
    93  H    0.003196  -0.000349
    94  H    0.004864   0.000123
    95  H    0.004864   0.000123
    96  C   -0.139731   0.082655
    97  C   -0.085169  -0.049111
    98  C   -0.085169  -0.049111
    99  C   -0.082781   0.102584
   100  S    0.073975  -0.003345
   101  C   -0.082781   0.102584
   102  S    0.073975  -0.003345
   103  C    0.137787  -0.125865
   104  S    0.089361   0.003520
   105  C   -0.464996  -0.000576
   106  S    0.089361   0.003520
   107  C   -0.464996  -0.000576
   108  C   -0.181789   0.725826
   109  C    0.072396   0.000332
   110  C    0.020880  -0.000053
   111  C    0.072396   0.000332
   112  C    0.020880  -0.000053
   113  C    0.051852  -0.112289
   114  C    0.051852  -0.112289
   115  H    0.050630  -0.000028
   116  H    0.046060   0.000048
   117  H    0.052039  -0.000151
   118  H    0.056842  -0.000006
   119  H    0.056095  -0.000083
   120  H    0.059528   0.000005
   121  H    0.046060   0.000048
   122  H    0.052039  -0.000151
   123  H    0.050630  -0.000028
   124  H    0.056095  -0.000083
   125  H    0.059528   0.000005
   126  H    0.056842  -0.000006
   127  C   -0.050376   0.094964
   128  C   -0.056490   0.097720
   129  C   -0.050376   0.094964
   130  C   -0.056490   0.097720
   131  C   -0.083468  -0.046343
   132  S    0.089141   0.008242
   133  C   -0.069588  -0.048200
   134  S    0.082664   0.012966
   135  C   -0.083468  -0.046343
   136  S    0.089141   0.008242
   137  C   -0.069588  -0.048200
   138  S    0.082664   0.012966
   139  C    0.069325   0.099198
   140  S    0.066762  -0.003250
   141  C   -0.467054  -0.000849
   142  S    0.064104  -0.002402
   143  C   -0.466242  -0.000652
   144  C    0.069325   0.099198
   145  S    0.066762  -0.003250
   146  C   -0.467054  -0.000849
   147  S    0.064104  -0.002402
   148  C   -0.466242  -0.000652
   149  H   -0.000685  -0.004990
   150  C    0.019794   0.000038
   151  C    0.073048   0.000443
   152  C    0.019995   0.000014
   153  C    0.086253   0.000332
   154  H   -0.000685  -0.004990
   155  C    0.019794   0.000038
   156  C    0.073048   0.000443
   157  C    0.019995   0.000014
   158  C    0.086253   0.000332
   159  H    0.059502  -0.000012
   160  H    0.055163   0.000000
   161  H    0.060234  -0.000022
   162  H    0.043365  -0.000472
   163  H    0.048055  -0.000041
   164  H    0.053195  -0.000004
   165  H    0.056347  -0.000020
   166  H    0.058203  -0.000022
   167  H    0.057115  -0.000006
   168  H    0.044693   0.000089
   169  H    0.048332  -0.000035
   170  H    0.041659  -0.000332
   171  H    0.059502  -0.000012
   172  H    0.055163   0.000000
   173  H    0.060234  -0.000022
   174  H    0.043365  -0.000472
   175  H    0.048055  -0.000041
   176  H    0.053195  -0.000004
   177  H    0.056347  -0.000020
   178  H    0.058203  -0.000022
   179  H    0.057115  -0.000006
   180  H    0.044693   0.000089
   181  H    0.048332  -0.000035
   182  H    0.041659  -0.000332
   183  C   -0.241285  -0.007817
   184  C   -0.250222   0.004140
   185  C    0.176459   0.045627
   186  C    0.168449   0.051284
   187  C    0.215251  -0.030019
   188  C    0.211153  -0.020894
 Sum of Mulliken charges =   0.00000   2.00000

 Dipole moment (field-independent basis, Debye):
    X=              0.0000    Y=              0.0000    Z=             -0.0600  Tot=              0.0600
 Quadrupole moment (field-independent basis, Debye-Ang):
   XX=           -757.1205   YY=           -786.5414   ZZ=           -736.6583
   XY=              4.1253   XZ=              0.0000   YZ=              0.0000

 Normal termination of Gaussian 16 at Thu Mar 11 02:38:57 2021.
