 Gaussian 16, Revision C.01,
 Gaussian 16:  EM64W-G16RevC.01 30-May-2019

 ----------------------------------------------------------------------
 #p um06/cc-pVDZ guess=mix scf=(tight,novaracc,noincfock,maxcycle=128)
 integral=(grid=ultrafine)
 ----------------------------------------------------------------------

 ------------------------------------
 Olav's radical, singlet state energy
 ------------------------------------
 Symbolic Z-matrix:
 Charge =  0 Multiplicity = 1

                         Standard orientation:
 ---------------------------------------------------------------------
 Center     Atomic      Atomic             Coordinates (Angstroms)
 Number     Number       Type             X           Y           Z
 ---------------------------------------------------------------------
      1          6           0        0.000000    0.000000   -8.320296
      2          6           0        1.091994    0.517304   -7.593572
      3          6           0       -1.091994   -0.517304   -7.593572
      4          6           0        1.091505    0.512427   -6.198112
      5          6           0       -1.091505   -0.512427   -6.198112
      6          6           0        0.000000    0.000000   -5.482307
      7         16           0       -2.567402   -1.167047   -8.344013
      8         16           0       -2.523535   -1.189451   -5.406261
      9         16           0        2.523535    1.189451   -5.406261
     10         16           0        2.567402    1.167047   -8.344013
     11          6           0        4.083818   -0.588014   -6.837957
     12          1           0        4.683504   -0.781649   -7.739467
     13          1           0        4.690505   -0.758813   -5.936905
     14          1           0        3.217488   -1.264806   -6.829787
     15          6           0        3.601995    0.867404   -6.856248
     16          6           0        4.768664    1.861724   -6.853882
     17          1           0        4.389988    2.891764   -6.866569
     18          1           0        5.379986    1.701309   -5.953752
     19          1           0        5.394585    1.686143   -7.740997
     20          6           0       -4.083818    0.588014   -6.837957
     21          1           0       -4.690505    0.758813   -5.936905
     22          1           0       -3.217488    1.264806   -6.829787
     23          1           0       -4.683504    0.781649   -7.739467
     24          6           0       -3.601995   -0.867404   -6.856248
     25          6           0       -4.768664   -1.861724   -6.853882
     26          1           0       -5.379986   -1.701309   -5.953752
     27          1           0       -5.394585   -1.686143   -7.740997
     28          1           0       -4.389988   -2.891764   -6.866569
     29          6           0        0.520375    1.178190  -10.485414
     30          6           0        1.479284    1.055216  -11.510847
     31          6           0        0.145607    2.475143  -10.082947
     32          6           0        2.098668    2.191019  -12.039790
     33         16           0        2.119303   -0.501206  -12.063718
     34          6           0        0.753048    3.604467  -10.644351
     35         16           0       -1.175970    2.813679   -8.948729
     36          6           0        1.744724    3.470098  -11.611369
     37         16           0        3.446810    1.895001  -13.152719
     38          6           0        2.897899    0.197286  -13.577297
     39         16           0        0.150689    5.172583  -10.078790
     40          6           0       -0.548267    4.486292   -8.523031
     41          1           0        2.240186    4.347947  -12.023223
     42          6           0        4.119301   -0.653872  -13.946522
     43          6           0        1.872967    0.251051  -14.714942
     44          6           0       -1.725019    5.359894   -8.072170
     45          6           0        0.536695    4.379797   -7.444624
     46          1           0        3.790624   -1.678982  -14.171730
     47          1           0        4.597048   -0.232595  -14.843136
     48          1           0        4.834875   -0.668869  -13.115399
     49          1           0        1.009568    0.855848  -14.404992
     50          1           0        2.338523    0.704518  -15.602130
     51          1           0        1.536616   -0.769568  -14.949425
     52          1           0       -1.356736    6.369538   -7.838341
     53          1           0       -2.483897    5.414973   -8.862712
     54          1           0       -2.165240    4.927910   -7.161222
     55          1           0        0.931536    5.384098   -7.229103
     56          1           0        0.097527    3.946020   -6.533736
     57          1           0        1.352345    3.727480   -7.789265
     58          6           0        0.000000    0.000000   -9.782858
     59          6           0       -0.520375   -1.178190  -10.485414
     60          6           0       -1.479284   -1.055216  -11.510847
     61          6           0       -0.145607   -2.475143  -10.082947
     62          6           0       -2.098668   -2.191019  -12.039790
     63         16           0       -2.119303    0.501206  -12.063718
     64          6           0       -0.753048   -3.604467  -10.644351
     65         16           0        1.175970   -2.813679   -8.948729
     66          6           0       -1.744724   -3.470098  -11.611369
     67         16           0       -3.446810   -1.895001  -13.152719
     68          6           0       -2.897899   -0.197286  -13.577297
     69         16           0       -0.150689   -5.172583  -10.078790
     70          6           0        0.548267   -4.486292   -8.523031
     71          1           0       -2.240186   -4.347947  -12.023223
     72          6           0       -4.119301    0.653872  -13.946522
     73          6           0       -1.872967   -0.251051  -14.714942
     74          6           0        1.725019   -5.359894   -8.072170
     75          6           0       -0.536695   -4.379797   -7.444624
     76          1           0       -3.790624    1.678982  -14.171730
     77          1           0       -4.597048    0.232595  -14.843136
     78          1           0       -4.834875    0.668869  -13.115399
     79          1           0       -1.009568   -0.855848  -14.404992
     80          1           0       -2.338523   -0.704518  -15.602130
     81          1           0       -1.536616    0.769568  -14.949425
     82          1           0        1.356736   -6.369538   -7.838341
     83          1           0        2.483897   -5.414973   -8.862712
     84          1           0        2.165240   -4.927910   -7.161222
     85          1           0       -0.931536   -5.384098   -7.229103
     86          1           0       -0.097527   -3.946020   -6.533736
     87          1           0       -1.352345   -3.727480   -7.789265
     88          6           0        0.627607    1.039385   -0.690813
     89          6           0       -0.627607   -1.039385   -0.690813
     90          6           0        0.628465    1.040098    0.697803
     91          1           0        1.107930    1.840208   -1.246975
     92          6           0       -0.628465   -1.040098    0.697803
     93          1           0       -1.107930   -1.840208   -1.246975
     94          1           0        1.112275    1.842305    1.253748
     95          1           0       -1.112275   -1.842305    1.253748
     96          6           0        0.000000    0.000000    5.494731
     97          6           0        1.124418   -0.435498    6.210104
     98          6           0       -1.124418    0.435498    6.210104
     99          6           0        1.123474   -0.443051    7.606081
    100         16           0        2.596656   -1.019321    5.419139
    101          6           0       -1.123474    0.443051    7.606081
    102         16           0       -2.596656    1.019321    5.419139
    103          6           0        0.000000    0.000000    8.331191
    104         16           0        2.633631   -1.001072    8.359390
    105          6           0        3.651786   -0.641147    6.873393
    106         16           0       -2.633631    1.001072    8.359390
    107          6           0       -3.651786    0.641147    6.873393
    108          6           0        0.000000    0.000000    9.796594
    109          6           0        4.052525    0.838536    6.859046
    110          6           0        4.872309   -1.568624    6.870780
    111          6           0       -4.052525   -0.838536    6.859046
    112          6           0       -4.872309    1.568624    6.870780
    113          6           0        0.570861   -1.157441   10.492788
    114          6           0       -0.570861    1.157441   10.492788
    115          1           0        4.639755    1.062971    7.761530
    116          1           0        4.650798    1.044258    5.959024
    117          1           0        3.150695    1.466766    6.850576
    118          1           0        4.551732   -2.618097    6.881644
    119          1           0        5.474785   -1.373211    5.971487
    120          1           0        5.486592   -1.359605    7.758709
    121          1           0       -4.650798   -1.044258    5.959024
    122          1           0       -3.150695   -1.466766    6.850576
    123          1           0       -4.639755   -1.062971    7.761530
    124          1           0       -5.474785    1.373211    5.971487
    125          1           0       -5.486592    1.359605    7.758709
    126          1           0       -4.551732    2.618097    6.881644
    127          6           0        1.521531   -0.999322   11.521511
    128          6           0        0.264181   -2.467303   10.073065
    129          6           0       -1.521531    0.999322   11.521511
    130          6           0       -0.264181    2.467303   10.073065
    131          6           0        2.203533   -2.108450   12.029999
    132         16           0        2.071620    0.580184   12.105486
    133          6           0        0.934209   -3.570590   10.613887
    134         16           0       -1.042931   -2.860692    8.939713
    135          6           0       -2.203533    2.108450   12.029999
    136         16           0       -2.071620   -0.580184   12.105486
    137          6           0       -0.934209    3.570590   10.613887
    138         16           0        1.042931    2.860692    8.939713
    139          6           0        1.920373   -3.397903   11.580261
    140         16           0        3.536037   -1.756745   13.146017
    141          6           0        2.889100   -0.103727   13.606156
    142         16           0        0.417937   -5.159701   10.021350
    143          6           0       -0.319651   -4.483947    8.478454
    144          6           0       -1.920373    3.397903   11.580261
    145         16           0       -3.536037    1.756745   13.146017
    146          6           0       -2.889100    0.103727   13.606156
    147         16           0       -0.417937    5.159701   10.021350
    148          6           0        0.319651    4.483947    8.478454
    149          1           0        2.465359   -4.253522   11.976073
    150          6           0        4.058639    0.808395   13.997612
    151          6           0        1.867202   -0.242951   14.739266
    152          6           0       -1.443777   -5.413672    8.007924
    153          6           0        0.757187   -4.291395    7.404147
    154          1           0       -2.465359    4.253522   11.976073
    155          6           0       -4.058639   -0.808395   13.997612
    156          6           0       -1.867202    0.242951   14.739266
    157          6           0        1.443777    5.413672    8.007924
    158          6           0       -0.757187    4.291395    7.404147
    159          1           0        3.671037    1.807708   14.242772
    160          1           0        4.557303    0.396061   14.887080
    161          1           0        4.774638    0.881752   13.169988
    162          1           0        1.038663   -0.886229   14.411275
    163          1           0        2.355821   -0.692564   15.616081
    164          1           0        1.474485    0.750826   14.999366
    165          1           0       -1.017567   -6.395140    7.751764
    166          1           0       -2.197428   -5.530075    8.796307
    167          1           0       -1.909011   -4.988181    7.106483
    168          1           0        1.208605   -5.265834    7.165567
    169          1           0        0.294708   -3.861098    6.502865
    170          1           0        1.535106   -3.601883    7.765200
    171          1           0       -3.671037   -1.807708   14.242772
    172          1           0       -4.557303   -0.396061   14.887080
    173          1           0       -4.774638   -0.881752   13.169988
    174          1           0       -1.038663    0.886229   14.411275
    175          1           0       -2.355821    0.692564   15.616081
    176          1           0       -1.474485   -0.750826   14.999366
    177          1           0        1.017567    6.395140    7.751764
    178          1           0        2.197428    5.530075    8.796307
    179          1           0        1.909011    4.988181    7.106483
    180          1           0       -1.208605    5.265834    7.165567
    181          1           0       -0.294708    3.861098    6.502865
    182          1           0       -1.535106    3.601883    7.765200
    183          6           0        0.000000    0.000000   -1.391859
    184          6           0        0.000000    0.000000    1.398980
    185          6           0        0.000000    0.000000    2.843793
    186          6           0        0.000000    0.000000   -2.833840
    187          6           0        0.000000    0.000000   -4.045063
    188          6           0        0.000000    0.000000    4.054643
 ---------------------------------------------------------------------

 SCF Done:  E(UM06) =  -12803.0496866     A.U. after   51 cycles

 Alpha virt. eigenvalues --    0.65410   0.65475   0.65579   0.65651   0.65670
 Alpha virt. eigenvalues --    0.65708   0.65796   0.65807   0.65970   0.66032
 Alpha virt. eigenvalues --    0.66436   0.66524   0.66577   0.66673   0.66678

  Beta  occ. eigenvalues --  -89.05964 -89.05964 -89.05947 -89.05947 -89.05841
  Beta  occ. eigenvalues --  -89.05841 -89.05813 -89.05813 -89.05810 -89.05810
  Beta  occ. eigenvalues --  -89.05804 -89.05804 -89.05803 -89.05803 -89.05754
  Beta  occ. eigenvalues --  -89.05754 -89.05733 -89.05733 -89.05716 -89.05716
  Beta  occ. eigenvalues --  -89.05572 -89.05572 -89.05556 -89.05556 -10.32528
  Beta  occ. eigenvalues --  -10.32528 -10.32525 -10.32525 -10.32218 -10.32218
  Beta  occ. eigenvalues --  -10.32197 -10.32197 -10.32097 -10.32097 -10.32060
  Beta  occ. eigenvalues --  -10.32060 -10.29258 -10.29252 -10.29179 -10.29176
  Beta  occ. eigenvalues --  -10.29175 -10.29163 -10.29093 -10.29093 -10.29084
  Beta  occ. eigenvalues --  -10.29024 -10.29024 -10.29024 -10.29023 -10.29023
  Beta  occ. eigenvalues --  -10.28983 -10.28983 -10.28960 -10.28960 -10.28918
  Beta  occ. eigenvalues --  -10.28916 -10.28879 -10.28879 -10.28868 -10.28868
  Beta  occ. eigenvalues --  -10.28868 -10.28862 -10.28857 -10.28855 -10.28817
  Beta  occ. eigenvalues --  -10.28148 -10.28145 -10.28072 -10.28039 -10.28036
  Beta  occ. eigenvalues --  -10.28034 -10.27861 -10.27000 -10.27000 -10.26907
  Beta  occ. eigenvalues --  -10.26906 -10.26902 -10.26902 -10.26831 -10.26829
  Beta  occ. eigenvalues --  -10.26359 -10.26359 -10.26355 -10.26355 -10.26235
  Beta  occ. eigenvalues --  -10.26227 -10.26183 -10.26183 -10.26135 -10.26135
  Beta  occ. eigenvalues --  -10.26131 -10.26131 -10.26130 -10.26130 -10.26037
  Beta  occ. eigenvalues --  -10.26011 -10.25544 -10.25544 -10.25538 -10.25538
  Beta  occ. eigenvalues --  -10.25118 -10.25118 -10.25116 -10.25116 -10.24631
  Beta  occ. eigenvalues --  -10.24631 -10.24600 -10.24600  -8.06504  -8.06503
  Beta  occ. eigenvalues --   -8.06488  -8.06488  -8.06443  -8.06443  -8.06433
  Beta  occ. eigenvalues --   -8.06432  -8.06385  -8.06385  -8.06337  -8.06337
  Beta  occ. eigenvalues --   -8.06332  -8.06332  -8.06310  -8.06310  -8.06278
  Beta  occ. eigenvalues --   -8.06277  -8.06267  -8.06267  -8.06197  -8.06197
  Beta  occ. eigenvalues --   -8.06178  -8.06178  -5.98260  -5.98260  -5.98249
  Beta  occ. eigenvalues --   -5.98248  -5.98194  -5.98194  -5.98185  -5.98185
  Beta  occ. eigenvalues --   -5.98135  -5.98135  -5.98097  -5.98097  -5.98086
  Beta  occ. eigenvalues --   -5.98085  -5.98066  -5.98066  -5.98035  -5.98035
  Beta  occ. eigenvalues --   -5.98019  -5.98019  -5.97945  -5.97945  -5.97928
  Beta  occ. eigenvalues --   -5.97928  -5.97905  -5.97905  -5.97893  -5.97893
  Beta  occ. eigenvalues --   -5.97850  -5.97850  -5.97843  -5.97843  -5.97795
  Beta  occ. eigenvalues --   -5.97795  -5.97744  -5.97744  -5.97742  -5.97742
  Beta  occ. eigenvalues --   -5.97714  -5.97714  -5.97691  -5.97691  -5.97676
  Beta  occ. eigenvalues --   -5.97676  -5.97605  -5.97605  -5.97590  -5.97590
  Beta  occ. eigenvalues --   -5.97222  -5.97222  -5.97191  -5.97191  -5.97144
  Beta  occ. eigenvalues --   -5.97144  -5.97125  -5.97125  -5.97093  -5.97093
  Beta  occ. eigenvalues --   -5.97046  -5.97046  -5.97033  -5.97033  -5.97028
  Beta  occ. eigenvalues --   -5.97028  -5.96982  -5.96982  -5.96973  -5.96973
  Beta  occ. eigenvalues --   -5.96900  -5.96900  -5.96874  -5.96874  -0.92799
  Beta  occ. eigenvalues --   -0.92549  -0.91490  -0.91428  -0.91385  -0.91296
  Beta  occ. eigenvalues --   -0.89006  -0.88662  -0.88661  -0.88625  -0.88596
  Beta  occ. eigenvalues --   -0.88593  -0.88580  -0.86418  -0.86033  -0.85016
  Beta  occ. eigenvalues --   -0.84991  -0.84795  -0.84765  -0.84015  -0.83801
  Beta  occ. eigenvalues --   -0.81812  -0.80948  -0.80430  -0.80230  -0.80144
  Beta  occ. eigenvalues --   -0.79593  -0.79567  -0.79538  -0.79517  -0.79488
  Beta  occ. eigenvalues --   -0.79460  -0.77207  -0.76530  -0.76180  -0.76167
  Beta  occ. eigenvalues --   -0.76148  -0.76105  -0.76096  -0.75973  -0.75382
  Beta  occ. eigenvalues --   -0.74747  -0.74166  -0.73777  -0.73752  -0.73733
  Beta  occ. eigenvalues --   -0.73417  -0.73090  -0.72896  -0.71479  -0.71348
  Beta  occ. eigenvalues --   -0.71345  -0.71265  -0.71230  -0.71081  -0.71080
  Beta  occ. eigenvalues --   -0.70955  -0.70912  -0.70887  -0.70878  -0.70850
  Beta  occ. eigenvalues --   -0.70590  -0.70585  -0.70576  -0.70572  -0.68662
  Beta  occ. eigenvalues --   -0.67861  -0.67710  -0.67706  -0.67669  -0.67649
  Beta  occ. eigenvalues --   -0.67611  -0.67603  -0.65317  -0.63176  -0.63152
  Beta  occ. eigenvalues --   -0.62559  -0.62396  -0.62189  -0.58854  -0.58767
  Beta  occ. eigenvalues --   -0.58675  -0.58552  -0.58480  -0.58472  -0.57531
  Beta  occ. eigenvalues --   -0.57418  -0.56951  -0.56939  -0.56781  -0.56766
  Beta  occ. eigenvalues --   -0.56115  -0.55739  -0.55530  -0.55450  -0.55241
  Beta  occ. eigenvalues --   -0.55230  -0.55156  -0.55092  -0.54879  -0.52944
  Beta  occ. eigenvalues --   -0.51587  -0.51472  -0.51106  -0.51062  -0.50905
  Beta  occ. eigenvalues --   -0.50780  -0.50132  -0.49501  -0.48681  -0.48660
  Beta  occ. eigenvalues --   -0.48632  -0.48625  -0.48611  -0.48274  -0.48238
  Beta  occ. eigenvalues --   -0.47584  -0.47498  -0.47390  -0.47325  -0.46664
  Beta  occ. eigenvalues --   -0.46581  -0.46269  -0.46068  -0.45959  -0.45956
  Beta  occ. eigenvalues --   -0.45775  -0.45719  -0.45700  -0.45681  -0.45662
  Beta  occ. eigenvalues --   -0.45658  -0.45431  -0.45425  -0.45420  -0.45417
  Beta  occ. eigenvalues --   -0.45369  -0.45338  -0.45308  -0.45270  -0.45264
  Beta  occ. eigenvalues --   -0.45259  -0.45235  -0.45097  -0.45076  -0.44946
  Beta  occ. eigenvalues --   -0.44869  -0.44633  -0.44554  -0.44184  -0.43909
  Beta  occ. eigenvalues --   -0.43881  -0.43727  -0.43702  -0.43663  -0.43632
  Beta  occ. eigenvalues --   -0.41388  -0.41321  -0.41293  -0.41269  -0.41126
  Beta  occ. eigenvalues --   -0.41115  -0.41103  -0.41023  -0.40981  -0.40911
  Beta  occ. eigenvalues --   -0.40848  -0.40838  -0.40773  -0.40738  -0.40615
  Beta  occ. eigenvalues --   -0.40573  -0.40563  -0.40441  -0.40391  -0.39321
  Beta  occ. eigenvalues --   -0.39146  -0.39126  -0.39108  -0.39086  -0.39083
  Beta  occ. eigenvalues --   -0.39058  -0.38229  -0.38210  -0.38200  -0.38191
  Beta  occ. eigenvalues --   -0.38031  -0.38016  -0.37967  -0.37943  -0.37595
  Beta  occ. eigenvalues --   -0.37585  -0.37469  -0.37446  -0.37197  -0.37021
  Beta  occ. eigenvalues --   -0.37003  -0.36872  -0.36829  -0.36717  -0.36712
  Beta  occ. eigenvalues --   -0.36656  -0.36650  -0.36613  -0.36595  -0.36583
  Beta  occ. eigenvalues --   -0.36566  -0.36025  -0.35965  -0.35639  -0.35599
  Beta  occ. eigenvalues --   -0.35599  -0.35544  -0.35459  -0.35440  -0.35407
  Beta  occ. eigenvalues --   -0.35368  -0.35309  -0.35303  -0.35299  -0.35284
  Beta  occ. eigenvalues --   -0.35009  -0.34856  -0.34722  -0.34668  -0.34532
  Beta  occ. eigenvalues --   -0.34519  -0.34232  -0.34081  -0.33931  -0.33569
  Beta  occ. eigenvalues --   -0.33489  -0.33291  -0.33167  -0.33144  -0.33095
  Beta  occ. eigenvalues --   -0.32954  -0.32937  -0.32739  -0.32731  -0.32326
  Beta  occ. eigenvalues --   -0.32193  -0.32001  -0.31997  -0.31941  -0.31424
  Beta  occ. eigenvalues --   -0.30316  -0.30151  -0.29687  -0.29255  -0.28920
  Beta  occ. eigenvalues --   -0.28626  -0.28223  -0.27757  -0.26452  -0.26435
  Beta  occ. eigenvalues --   -0.26429  -0.26234  -0.26006  -0.25912  -0.25792
  Beta  occ. eigenvalues --   -0.25566  -0.24708  -0.24642  -0.24604  -0.24487
  Beta  occ. eigenvalues --   -0.24266  -0.23812  -0.23466  -0.22419  -0.22264
  Beta  occ. eigenvalues --   -0.22191  -0.21784  -0.20408  -0.20312  -0.20061
  Beta  occ. eigenvalues --   -0.19979  -0.19872  -0.19794  -0.19132
  Beta virt. eigenvalues --   -0.10106  -0.05554  -0.04201  -0.03292  -0.02824
  Beta virt. eigenvalues --   -0.02579  -0.02542  -0.02315  -0.01714  -0.01555
  Beta virt. eigenvalues --   -0.01417  -0.01349  -0.01201  -0.01175  -0.01076

 Mulliken charges and spin densities:
               1          2
     1  C    0.145470  -0.131078
     2  C   -0.085930   0.108100
     3  C   -0.085930   0.108100
     4  C   -0.087660  -0.052854
     5  C   -0.087660  -0.052854
     6  C   -0.128566   0.088156
     7  S    0.090372   0.004357
     8  S    0.070204  -0.003612
     9  S    0.070204  -0.003612
    10  S    0.090372   0.004357
    11  C    0.072271   0.000340
    12  H    0.050794  -0.000028
    13  H    0.046897   0.000050
    14  H    0.053077  -0.000185
    15  C   -0.464970  -0.000652
    16  C    0.020647  -0.000052
    17  H    0.056507  -0.000010
    18  H    0.055995  -0.000089
    19  H    0.059909   0.000004
    20  C    0.072271   0.000340
    21  H    0.046897   0.000050
    22  H    0.053077  -0.000185
    23  H    0.050794  -0.000028
    24  C   -0.464970  -0.000652
    25  C    0.020647  -0.000052
    26  H    0.055995  -0.000089
    27  H    0.059909   0.000004
    28  H    0.056507  -0.000010
    29  C    0.049914  -0.110252
    30  C   -0.050792   0.092436
    31  C   -0.054568   0.094812
    32  C   -0.083846  -0.044859
    33  S    0.090016   0.008231
    34  C   -0.070314  -0.046858
    35  S    0.082380   0.012182
    36  C    0.069473   0.096475
    37  S    0.066551  -0.003108
    38  C   -0.466911  -0.000839
    39  S    0.064235  -0.002338
    40  C   -0.465690  -0.000613
    41  H   -0.000751  -0.004850
    42  C    0.019793   0.000033
    43  C    0.074744   0.000424
    44  C    0.019604   0.000012
    45  C    0.085357   0.000327
    46  H    0.059566  -0.000011
    47  H    0.055062   0.000002
    48  H    0.060129  -0.000022
    49  H    0.040868  -0.000456
    50  H    0.047928  -0.000047
    51  H    0.054176  -0.000010
    52  H    0.056177  -0.000016
    53  H    0.058278  -0.000022
    54  H    0.058008  -0.000004
    55  H    0.044501   0.000084
    56  H    0.048445  -0.000039
    57  H    0.041529  -0.000284
    58  C   -0.183209   0.721202
    59  C    0.049914  -0.110252
    60  C   -0.050792   0.092436
    61  C   -0.054568   0.094812
    62  C   -0.083846  -0.044859
    63  S    0.090016   0.008231
    64  C   -0.070314  -0.046858
    65  S    0.082380   0.012182
    66  C    0.069473   0.096475
    67  S    0.066551  -0.003108
    68  C   -0.466911  -0.000839
    69  S    0.064235  -0.002338
    70  C   -0.465690  -0.000613
    71  H   -0.000751  -0.004850
    72  C    0.019793   0.000033
    73  C    0.074744   0.000424
    74  C    0.019604   0.000012
    75  C    0.085357   0.000327
    76  H    0.059566  -0.000011
    77  H    0.055062   0.000002
    78  H    0.060129  -0.000022
    79  H    0.040868  -0.000456
    80  H    0.047928  -0.000047
    81  H    0.054176  -0.000010
    82  H    0.056177  -0.000016
    83  H    0.058278  -0.000022
    84  H    0.058008  -0.000004
    85  H    0.044501   0.000084
    86  H    0.048445  -0.000039
    87  H    0.041529  -0.000284
    88  C    0.017825   0.009439
    89  C    0.017825   0.009439
    90  C    0.017506  -0.007216
    91  H    0.003196  -0.000530
    92  C    0.017506  -0.007216
    93  H    0.003196  -0.000530
    94  H    0.004864   0.000374
    95  H    0.004864   0.000374
    96  C   -0.139732  -0.083703
    97  C   -0.085168   0.049518
    98  C   -0.085168   0.049518
    99  C   -0.082783  -0.102689
   100  S    0.073970   0.003370
   101  C   -0.082783  -0.102689
   102  S    0.073970   0.003370
   103  C    0.137791   0.126038
   104  S    0.089363  -0.003489
   105  C   -0.464995   0.000613
   106  S    0.089363  -0.003489
   107  C   -0.464995   0.000613
   108  C   -0.181792  -0.725791
   109  C    0.072396  -0.000331
   110  C    0.020880   0.000052
   111  C    0.072396  -0.000331
   112  C    0.020880   0.000052
   113  C    0.051850   0.112287
   114  C    0.051850   0.112287
   115  H    0.050630   0.000029
   116  H    0.046060  -0.000048
   117  H    0.052039   0.000151
   118  H    0.056842   0.000006
   119  H    0.056095   0.000083
   120  H    0.059528  -0.000003
   121  H    0.046060  -0.000048
   122  H    0.052039   0.000151
   123  H    0.050630   0.000029
   124  H    0.056095   0.000083
   125  H    0.059528  -0.000003
   126  H    0.056842   0.000006
   127  C   -0.050376  -0.094960
   128  C   -0.056490  -0.097713
   129  C   -0.050376  -0.094960
   130  C   -0.056490  -0.097713
   131  C   -0.083467   0.046342
   132  S    0.089142  -0.008241
   133  C   -0.069589   0.048196
   134  S    0.082662  -0.012963
   135  C   -0.083467   0.046342
   136  S    0.089142  -0.008241
   137  C   -0.069589   0.048196
   138  S    0.082662  -0.012963
   139  C    0.069325  -0.099190
   140  S    0.066762   0.003250
   141  C   -0.467054   0.000849
   142  S    0.064104   0.002402
   143  C   -0.466242   0.000653
   144  C    0.069325  -0.099190
   145  S    0.066762   0.003250
   146  C   -0.467054   0.000849
   147  S    0.064104   0.002402
   148  C   -0.466242   0.000653
   149  H   -0.000685   0.004989
   150  C    0.019794  -0.000038
   151  C    0.073048  -0.000443
   152  C    0.019995  -0.000014
   153  C    0.086253  -0.000331
   154  H   -0.000685   0.004989
   155  C    0.019794  -0.000038
   156  C    0.073048  -0.000443
   157  C    0.019995  -0.000014
   158  C    0.086253  -0.000331
   159  H    0.059502   0.000012
   160  H    0.055163   0.000000
   161  H    0.060234   0.000022
   162  H    0.043365   0.000472
   163  H    0.048055   0.000041
   164  H    0.053195   0.000004
   165  H    0.056347   0.000020
   166  H    0.058203   0.000022
   167  H    0.057114   0.000006
   168  H    0.044693  -0.000089
   169  H    0.048331   0.000034
   170  H    0.041659   0.000332
   171  H    0.059502   0.000012
   172  H    0.055163   0.000000
   173  H    0.060234   0.000022
   174  H    0.043365   0.000472
   175  H    0.048055   0.000041
   176  H    0.053195   0.000004
   177  H    0.056347   0.000020
   178  H    0.058203   0.000022
   179  H    0.057114   0.000006
   180  H    0.044693  -0.000089
   181  H    0.048331   0.000034
   182  H    0.041659   0.000332
   183  C   -0.241284  -0.010124
   184  C   -0.250226   0.012731
   185  C    0.176465  -0.051058
   186  C    0.168446   0.052108
   187  C    0.215248  -0.031387
   188  C    0.211158   0.030827
 Sum of Mulliken charges =   0.00000   0.00000

 Dipole moment (field-independent basis, Debye):
    X=              0.0000    Y=              0.0000    Z=             -0.0599  Tot=              0.0599
 Quadrupole moment (field-independent basis, Debye-Ang):
   XX=           -757.1209   YY=           -786.5423   ZZ=           -736.6595
   XY=              4.1252   XZ=              0.0000   YZ=              0.0000

 Normal termination of Gaussian 16 at Wed Mar 10 19:54:12 2021.
