 Gaussian 09, Revision D.01,

 ----------------------------------------------------------------------
 #p opt=tight m06/cc-pVTZ scrf=(smd,solvent=water) integral=(grid=ultra
 fine) scf=tight
 ----------------------------------------------------------------------

 -------------------------
 3-fluorotyrosine geometry
 -------------------------
 Symbolic Z-matrix:
 Charge =  0 Multiplicity = 1

 SCF Done:  E(RM06) =  -729.058936070     A.U. after   13 cycles
 SCF Done:  E(RM06) =  -729.093033259     A.U. after   11 cycles
 SCF Done:  E(RM06) =  -729.096924151     A.U. after   12 cycles
 SCF Done:  E(RM06) =  -729.096202620     A.U. after   13 cycles
 SCF Done:  E(RM06) =  -729.100477421     A.U. after   10 cycles
 SCF Done:  E(RM06) =  -729.100939187     A.U. after   11 cycles
 SCF Done:  E(RM06) =  -729.102988321     A.U. after   10 cycles
 SCF Done:  E(RM06) =  -729.103460908     A.U. after   10 cycles
 SCF Done:  E(RM06) =  -729.103518029     A.U. after   10 cycles
 SCF Done:  E(RM06) =  -729.103524672     A.U. after    9 cycles
 SCF Done:  E(RM06) =  -729.103535329     A.U. after    9 cycles
 SCF Done:  E(RM06) =  -729.103537527     A.U. after    8 cycles
 SCF Done:  E(RM06) =  -729.103537462     A.U. after    7 cycles
 SCF Done:  E(RM06) =  -729.103537789     A.U. after    6 cycles
 SCF Done:  E(RM06) =  -729.103537334     A.U. after    6 cycles
 SCF Done:  E(RM06) =  -729.103537494     A.U. after    5 cycles
 Optimization completed.
    -- Stationary point found.
 Normal termination of Gaussian 09 at Sat Jan  7 00:29:58 2017.
 Gaussian 09:  ES64L-G09RevD.01 24-Apr-2013

 ----------------------------------------------------------------------
 #p nmr=giao m06/cc-pVTZ scrf=(smd,solvent=water) integral=(grid=ultraf
 ine) scf=tight geom=check
 ----------------------------------------------------------------------

 --------------------
 3-fluorotyrosine NMR
 --------------------
 Structure from the checkpoint file:  "3_fluoro_tyr.chk"
 Charge =  0 Multiplicity = 1

                         Standard orientation:
 ---------------------------------------------------------------------
 Center     Atomic      Atomic             Coordinates (Angstroms)
 Number     Number       Type             X           Y           Z
 ---------------------------------------------------------------------
      1          6           0        2.033381   -1.527748   -0.102803
      2          6           0        0.748153   -1.688835    0.388752
      3          6           0       -0.010124   -0.600282    0.796590
      4          6           0       -1.416162   -0.782350    1.287100
      5          6           0        0.555526    0.669157    0.704926
      6          6           0       -2.473909   -0.529383    0.220979
      7          6           0        1.829581    0.817469    0.216920
      8          9           0        2.368811    2.039120    0.135023
      9          6           0        2.593300   -0.266258   -0.199061
     10          8           0        3.841313   -0.022151   -0.666855
     11          7           0       -2.308519   -1.501962   -0.899998
     12          6           0       -2.417811    0.895537   -0.338021
     13          8           0       -2.701909    1.793566    0.477862
     14          8           0       -2.087456    1.026306   -1.533694
     15          1           0        2.618471   -2.383878   -0.417330
     16          1           0        0.327547   -2.685604    0.460814
     17          1           0       -1.630839   -0.096181    2.107153
     18          1           0       -1.545300   -1.797486    1.670091
     19          1           0        0.008694    1.552059    1.015328
     20          1           0       -3.462734   -0.704831    0.641605
     21          1           0        4.253237   -0.854804   -0.925527
     22          1           0       -2.274130   -2.463178   -0.559804
     23          1           0       -1.447924   -1.298068   -1.411682
     24          1           0       -3.073887   -1.411981   -1.566676
 ---------------------------------------------------------------------

 SCF Done:  E(RM06) =  -729.103537494     A.U. after   13 cycles

      1  C    Isotropic =    56.4321   Anisotropy =   148.8482

      2  C    Isotropic =    44.9919   Anisotropy =   167.6269

      3  C    Isotropic =    45.6568   Anisotropy =   184.3448

      4  C    Isotropic =   141.1297   Anisotropy =    13.1003

      5  C    Isotropic =    54.8026   Anisotropy =   150.9299

      6  C    Isotropic =   119.7499   Anisotropy =    34.1757

      7  C    Isotropic =    21.3572   Anisotropy =    92.1266

      8  F    Isotropic =   317.2008   Anisotropy =   135.9937

      9  C    Isotropic =    27.4517   Anisotropy =   134.7550

     10  O    Isotropic =   224.6300   Anisotropy =    54.2735

     11  N    Isotropic =   198.3761   Anisotropy =    23.8450

     12  C    Isotropic =    -1.7252   Anisotropy =   107.7906

     13  O    Isotropic =    14.1174   Anisotropy =   370.9985

     14  O    Isotropic =    -2.8054   Anisotropy =   410.2934

     15  H    Isotropic =    24.6228   Anisotropy =     5.7380

     16  H    Isotropic =    24.5436   Anisotropy =     7.7498

     17  H    Isotropic =    28.3766   Anisotropy =     6.7675

     18  H    Isotropic =    28.9434   Anisotropy =     7.0151

     19  H    Isotropic =    24.4021   Anisotropy =     8.9010

     20  H    Isotropic =    27.7929   Anisotropy =     6.2550

     21  H    Isotropic =    26.1436   Anisotropy =    15.7883

     22  H    Isotropic =    26.9924   Anisotropy =    14.9741

     23  H    Isotropic =    26.8618   Anisotropy =     9.7864

     24  H    Isotropic =    26.7812   Anisotropy =    16.3095

 The electronic state is 1-A.
 Alpha  occ. eigenvalues --  -24.79876 -19.24984 -19.17164 -19.16788 -14.49128
 Alpha  occ. eigenvalues --  -10.34004 -10.32440 -10.31114 -10.29776 -10.25373
 Alpha  occ. eigenvalues --  -10.25092 -10.24611 -10.24457 -10.24371  -1.27293
 Alpha  occ. eigenvalues --   -1.09337  -1.07004  -1.00419  -0.98121  -0.88310
 Alpha  occ. eigenvalues --   -0.81048  -0.76806  -0.75165  -0.68060  -0.64470
 Alpha  occ. eigenvalues --   -0.62550  -0.59129  -0.57731  -0.56666  -0.54451
 Alpha  occ. eigenvalues --   -0.53886  -0.52292  -0.49939  -0.49505  -0.47115
 Alpha  occ. eigenvalues --   -0.46264  -0.45143  -0.44556  -0.43489  -0.42681
 Alpha  occ. eigenvalues --   -0.42325  -0.41761  -0.40140  -0.38626  -0.36901
 Alpha  occ. eigenvalues --   -0.35803  -0.35365  -0.29105  -0.27608  -0.27335
 Alpha  occ. eigenvalues --   -0.26905  -0.24042
 Alpha virt. eigenvalues --   -0.01060   0.00311   0.02491   0.04417   0.04905
 Alpha virt. eigenvalues --    0.06033   0.07091   0.07899   0.08555   0.10649
 Alpha virt. eigenvalues --    0.11449   0.11758   0.13102   0.14577   0.15432

 Mulliken charges:
               1
     1  C   -0.249201
     2  C   -0.254604
     3  C    0.095394
     4  C   -0.333647
     5  C   -0.360759
     6  C   -0.107747
     7  C    0.358075
     8  F   -0.227912
     9  C    0.175049
    10  O   -0.344113
    11  N    0.222172
    12  C    0.327131
    13  O   -0.574009
    14  O   -0.566720
    15  H    0.159021
    16  H    0.192195
    17  H    0.182911
    18  H    0.198636
    19  H    0.186465
    20  H    0.181537
    21  H    0.254246
    22  H    0.164506
    23  H    0.169952
    24  H    0.151422
 Sum of Mulliken charges =   0.00000

 Dipole moment (field-independent basis, Debye):
    X=              0.0314    Y=            -17.9065    Z=             -0.8003  Tot=             17.9244
 Quadrupole moment (field-independent basis, Debye-Ang):
   XX=            -73.1022   YY=            -76.9237   ZZ=            -82.0369
   XY=             22.0902   XZ=             -0.7303   YZ=             10.0438

 Normal termination of Gaussian 09 at Sat Jan  7 00:38:52 2017.
