 Gaussian 09, Revision C.01,
 Gaussian 09:  EM64L-G09RevC.01 23-Sep-2011

 ----------------------------------------------------------------------
 #p nmr=(giao,spinspin,mixed) b3lyp/cc-pvdz scrf=(iefpcm,solvent=chloro
 form) geom=connectivity
 ----------------------------------------------------------------------

 (Enter /home/dbchem/mapete/chem/g09-C.01/G09-C.01-ifort-static/g09/l101.exe)
 ----------------------------
 Naphthalene NMR Optimization
 ----------------------------
 Charge =  0 Multiplicity = 1

 SCF Done:  E(RB3LYP) =  -385.963047178     A.U. after   10 cycles
 Normal termination of Gaussian 09 at Tue Jul 29 16:48:37 2014.

 ----------------------------------------------------------------------
 #P Geom=AllCheck Guess=TCheck SCRF=Check GenChk RB3LYP/ChkBas NMR=Read
 FC IOp(3/6=22)
 ----------------------------------------------------------------------

 Structure from the checkpoint file:  naphthalene_nmr.chk
 ----------------------------
 Naphthalene NMR Optimization
 ----------------------------
 Charge =  0 Multiplicity = 1

                         Standard orientation:
 ---------------------------------------------------------------------
 Center     Atomic      Atomic             Coordinates (Angstroms)
 Number     Number       Type             X           Y           Z
 ---------------------------------------------------------------------
      1          6           0        2.438277    0.709761    0.000001
      2          6           0        1.247136    1.405483   -0.000003
      3          6           0        0.000013    0.717990    0.000000
      4          6           0       -0.000015   -0.717985   -0.000001
      5          6           0        1.247121   -1.405484   -0.000003
      6          6           0        2.438264   -0.709777    0.000002
      7          1           0       -1.244805    2.498664   -0.000007
      8          1           0        3.387977    1.249582    0.000005
      9          1           0        1.244830    2.498654    0.000000
     10          6           0       -1.247127    1.405491    0.000000
     11          6           0       -1.247137   -1.405491    0.000001
     12          1           0        1.244810   -2.498658    0.000000
     13          1           0        3.387963   -1.249601    0.000006
     14          6           0       -2.438272   -0.709763    0.000000
     15          6           0       -2.438261    0.709773    0.000002
     16          1           0       -1.244814   -2.498660   -0.000004
     17          1           0       -3.387986   -1.249563    0.000002
     18          1           0       -3.387964    1.249591    0.000002
 ---------------------------------------------------------------------

 SCF Done:  E(RB3LYP) =  -385.918262424     A.U. after    9 cycles

      1  C    Isotropic =    67.0149   Anisotropy =   169.2058

      2  C    Isotropic =    64.5953   Anisotropy =   152.7482

      3  C    Isotropic =    59.4431   Anisotropy =   203.0825

      4  C    Isotropic =    59.4429   Anisotropy =   203.0828

      5  C    Isotropic =    64.5935   Anisotropy =   152.7480

      6  C    Isotropic =    67.0159   Anisotropy =   169.2045

      7  H    Isotropic =    23.6194   Anisotropy =     6.9320

      8  H    Isotropic =    23.8917   Anisotropy =     5.3590

      9  H    Isotropic =    23.6193   Anisotropy =     6.9320

     10  C    Isotropic =    64.5936   Anisotropy =   152.7481

     11  C    Isotropic =    64.5953   Anisotropy =   152.7478

     12  H    Isotropic =    23.6194   Anisotropy =     6.9321

     13  H    Isotropic =    23.8917   Anisotropy =     5.3589

     14  C    Isotropic =    67.0155   Anisotropy =   169.2051

     15  C    Isotropic =    67.0163   Anisotropy =   169.2038

     16  H    Isotropic =    23.6193   Anisotropy =     6.9320

     17  H    Isotropic =    23.8917   Anisotropy =     5.3589

     18  H    Isotropic =    23.8917   Anisotropy =     5.3590

 The electronic state is 1-A.
 Alpha  occ. eigenvalues --  -10.20157 -10.20123 -10.19480 -10.19479 -10.19452
 Alpha  occ. eigenvalues --  -10.19452 -10.19407 -10.19406 -10.19397 -10.19396
 Alpha  occ. eigenvalues --   -0.87624  -0.82324  -0.77586  -0.74345  -0.72145
 Alpha  occ. eigenvalues --   -0.62732  -0.61321  -0.59675  -0.51396  -0.51145
 Alpha  occ. eigenvalues --   -0.49421  -0.44822  -0.44223  -0.41842  -0.41807
 Alpha  occ. eigenvalues --   -0.40117  -0.39456  -0.37018  -0.34069  -0.33241
 Alpha  occ. eigenvalues --   -0.33205  -0.29041  -0.24972  -0.22202
 Alpha virt. eigenvalues --   -0.04644  -0.01760   0.02141   0.06401   0.07863
 Alpha virt. eigenvalues --    0.08404   0.08967   0.11939   0.12070   0.13476
 Alpha virt. eigenvalues --    0.14649   0.17333   0.18599   0.22652   0.26290

 Mulliken atomic charges:
              1
     1  C    0.032144
     2  C    0.015691
     3  C    0.014932
     4  C    0.014930
     5  C    0.015686
     6  C    0.032148
     7  H   -0.034580
     8  H   -0.020723
     9  H   -0.034581
    10  C    0.015688
    11  C    0.015698
    12  H   -0.034579
    13  H   -0.020723
    14  C    0.032144
    15  C    0.032149
    16  H   -0.034580
    17  H   -0.020722
    18  H   -0.020723
 Sum of Mulliken atomic charges =   0.00000

 Dipole moment (field-independent basis, Debye):
    X=             -0.0000    Y=              0.0000    Z=              0.0000  Tot=              0.0000
 Quadrupole moment (field-independent basis, Debye-Ang):
   XX=            -50.6076   YY=            -51.1652   ZZ=            -63.1281
   XY=              0.0001   XZ=              0.0000   YZ=             -0.0000

 Normal termination of Gaussian 09 at Tue Jul 29 16:54:42 2014.
