 Gaussian 09, Revision D.01,
 Gaussian 09:  EM64L-G09RevD.01 24-Apr-2013

 ----------------------------------------------------------------------
 #p nmr=(giao,mixed,spinspin) m06/cc-pvtz scf=tight integral=(grid=ultr
 afine)
 ----------------------------------------------------------------------

 ------------------
 NMR spin-spin scan
 ------------------
 Symbolic Z-matrix:
 Charge =  0 Multiplicity = 1

 SCF Done:  E(RM06) =  -801.917986800     A.U. after   15 cycles
 Normal termination of Gaussian 09 at Wed Jun 25 12:56:44 2014.

 ----------------------------------------------------------------------
 #P Geom=AllCheck Guess=TCheck SCRF=Check GenChk RM06/ChkBas NMR=ReadFC
  IOp(3/6=22)
 ----------------------------------------------------------------------

 Structure from the checkpoint file:  "/home/ztw1e12/tyrosine_scan/tyrosine_chi1_scan/Gau-30487.chk"
 ------------------
 NMR spin-spin scan
 ------------------
 Charge =  0 Multiplicity = 1

                         Standard orientation:
 ---------------------------------------------------------------------
 Center     Atomic      Atomic             Coordinates (Angstroms)
 Number     Number       Type             X           Y           Z
 ---------------------------------------------------------------------
      1          6           0       -3.362866   -0.897980    0.947603
      2          6           0       -2.051841   -1.219686    0.652392
      3          6           0       -1.424403   -0.719545   -0.482800
      4          6           0       -2.149745    0.121969   -1.316363
      5          6           0       -3.463786    0.454186   -1.035717
      6          6           0       -4.071805   -0.058180    0.099239
      7          1           0       -3.847847   -1.296611    1.831318
      8          1           0       -1.500116   -1.877996    1.315723
      9          1           0       -1.677914    0.520765   -2.207889
     10          1           0       -4.028467    1.107004   -1.689219
     11          6           0        0.004291   -1.066855   -0.769427
     12          1           0        0.156548   -2.136760   -0.609694
     13          1           0        0.258615   -0.856395   -1.812013
     14          6           0        0.986122   -0.322946    0.137273
     15          1           0        0.601974   -0.317480    1.161613
     16          6           0        2.285013   -1.108391    0.203262
     17          8           0       -5.367854    0.288887    0.338343
     18          1           0       -5.671472   -0.139412    1.146779
     19          8           0        2.333256   -2.132723    0.883295
     20          7           0        1.142468    1.036414   -0.328853
     21          1           0        0.712179    1.295067   -1.204651
     22          7           0        3.308785   -0.677827   -0.532290
     23          1           0        3.215334    0.192582   -1.030529
     24          6           0        1.673719    2.003584    0.447362
     25          6           0        1.679186    3.383213   -0.121489
     26          1           0        1.086870    4.029104    0.526788
     27          1           0        2.700552    3.762359   -0.115047
     28          1           0        1.282184    3.431304   -1.133243
     29          6           0        4.572889   -1.377814   -0.549658
     30          1           0        4.457634   -2.384540   -0.951881
     31          1           0        5.269968   -0.829686   -1.175846
     32          1           0        4.991109   -1.457439    0.454040
     33          8           0        2.131277    1.756174    1.559824
 ---------------------------------------------------------------------

 SCF Done:  E(RM06) =  -801.863688378     A.U. after   10 cycles

      1  C    Isotropic =    58.4146   Anisotropy =   139.4198

      2  C    Isotropic =    40.9977   Anisotropy =   180.6310

      3  C    Isotropic =    42.0469   Anisotropy =   193.2693

      4  C    Isotropic =    41.6528   Anisotropy =   163.3494

      5  C    Isotropic =    59.4609   Anisotropy =   154.2519

      6  C    Isotropic =    15.3771   Anisotropy =   150.5913

      7  H    Isotropic =    25.1974   Anisotropy =     6.1378

      8  H    Isotropic =    24.2701   Anisotropy =     9.0727

      9  H    Isotropic =    24.7819   Anisotropy =     8.1510

     10  H    Isotropic =    24.9803   Anisotropy =     6.0210

     11  C    Isotropic =   135.8980   Anisotropy =    18.3572

     12  H    Isotropic =    28.4705   Anisotropy =     4.8046

     13  H    Isotropic =    30.1186   Anisotropy =     4.0649

     14  C    Isotropic =   116.4789   Anisotropy =    27.8722

     15  H    Isotropic =    27.9173   Anisotropy =     3.1024

     16  C    Isotropic =    -1.2440   Anisotropy =   134.4093

     17  O    Isotropic =   199.0520   Anisotropy =    61.9898

     18  H    Isotropic =    27.7345   Anisotropy =    13.0701

     19  O    Isotropic =   -78.6840   Anisotropy =   638.3974

     20  N    Isotropic =   111.7433   Anisotropy =   149.3426

     21  H    Isotropic =    26.5061   Anisotropy =     5.8088

     22  N    Isotropic =   147.4585   Anisotropy =   103.8825

     23  H    Isotropic =    26.1818   Anisotropy =     8.7900

     24  C    Isotropic =     2.3346   Anisotropy =   131.7166

     25  C    Isotropic =   156.2071   Anisotropy =    41.0715

     26  H    Isotropic =    30.0037   Anisotropy =     6.7641

     27  H    Isotropic =    29.9963   Anisotropy =     7.2296

     28  H    Isotropic =    30.6472   Anisotropy =     5.1544

     29  C    Isotropic =   150.1052   Anisotropy =    39.6584

     30  H    Isotropic =    29.1631   Anisotropy =     9.4496

     31  H    Isotropic =    29.8138   Anisotropy =     8.8665

     32  H    Isotropic =    29.0084   Anisotropy =     9.4225

     33  O    Isotropic =  -118.2106   Anisotropy =   687.1158

 The electronic state is 1-A.
 Alpha  occ. eigenvalues --  -19.25129 -19.18013 -19.16990 -14.43028 -14.41878
 Alpha  occ. eigenvalues --  -10.34766 -10.33279 -10.31092 -10.29257 -10.27029
 Alpha  occ. eigenvalues --  -10.25867 -10.25266 -10.25201 -10.25126 -10.24994
 Alpha  occ. eigenvalues --  -10.24833 -10.24373  -1.09335  -1.06104  -1.04742
 Alpha  occ. eigenvalues --   -0.95993  -0.93811  -0.88125  -0.81784  -0.77412
 Alpha  occ. eigenvalues --   -0.77070  -0.74462  -0.71949  -0.66761  -0.64549
 Alpha  occ. eigenvalues --   -0.61602  -0.60802  -0.59760  -0.56694  -0.55167
 Alpha  occ. eigenvalues --   -0.52474  -0.51159  -0.49775  -0.48798  -0.47091
 Alpha  occ. eigenvalues --   -0.46735  -0.45802  -0.45555  -0.44227  -0.43736
 Alpha  occ. eigenvalues --   -0.43463  -0.42567  -0.42046  -0.41454  -0.41196
 Alpha  occ. eigenvalues --   -0.40400  -0.39563  -0.38762  -0.36879  -0.36350
 Alpha  occ. eigenvalues --   -0.35478  -0.35219  -0.30229  -0.27760  -0.27584
 Alpha  occ. eigenvalues --   -0.27290  -0.25970  -0.24053
 Alpha virt. eigenvalues --   -0.01810   0.00052   0.00709   0.01900   0.02135
 Alpha virt. eigenvalues --    0.02959   0.03875   0.04831   0.05636   0.06659
 Alpha virt. eigenvalues --    0.07035   0.07782   0.09329   0.09746   0.10369

 Mulliken charges:
               1
     1  C   -0.237591
     2  C   -0.223594
     3  C    0.183583
     4  C   -0.240550
     5  C   -0.172588
     6  C    0.286726
     7  H    0.116880
     8  H    0.161501
     9  H    0.152487
    10  H    0.124051
    11  C   -0.468126
    12  H    0.219930
    13  H    0.200976
    14  C   -0.106664
    15  H    0.240987
    16  C    0.280755
    17  O   -0.294283
    18  H    0.189455
    19  O   -0.404891
    20  N   -0.232849
    21  H    0.166715
    22  N   -0.149518
    23  H    0.142165
    24  C    0.274889
    25  C   -0.312898
    26  H    0.123784
    27  H    0.117621
    28  H    0.097573
    29  C   -0.168078
    30  H    0.110732
    31  H    0.084046
    32  H    0.117691
    33  O   -0.380918
 Sum of Mulliken charges =   0.00000

 Dipole moment (field-independent basis, Debye):
    X=             -1.0995    Y=              2.0799    Z=             -4.0906  Tot=              4.7189
 Quadrupole moment (field-independent basis, Debye-Ang):
   XX=            -91.7242   YY=           -102.3406   ZZ=           -100.1858
   XY=              7.4676   XZ=            -21.1514   YZ=             -5.0510

 Normal termination of Gaussian 09 at Wed Jun 25 17:48:11 2014.
