 Gaussian 09, Revision D.01,
 Gaussian 09:  EM64L-G09RevD.01 24-Apr-2013

 ----------------------------------------------------------------------
 #p nmr=(giao,mixed,spinspin) m06/cc-pvtz scf=tight integral=(grid=ultr
 afine)
 ----------------------------------------------------------------------

 ------------------
 NMR spin-spin scan
 ------------------
 Symbolic Z-matrix:
 Charge =  0 Multiplicity = 1

 SCF Done:  E(RM06) =  -801.911652549     A.U. after   16 cycles
 Normal termination of Gaussian 09 at Wed Jun 25 01:21:49 2014.

 ----------------------------------------------------------------------
 #P Geom=AllCheck Guess=TCheck SCRF=Check GenChk RM06/ChkBas NMR=ReadFC
  IOp(3/6=22)
 ----------------------------------------------------------------------

 Structure from the checkpoint file:  "/home/ztw1e12/tyrosine_scan/tyrosine_chi1_scan/Gau-29703.chk"
 ------------------
 NMR spin-spin scan
 ------------------
 Charge =  0 Multiplicity = 1

                         Standard orientation:
 ---------------------------------------------------------------------
 Center     Atomic      Atomic             Coordinates (Angstroms)
 Number     Number       Type             X           Y           Z
 ---------------------------------------------------------------------
      1          6           0        3.629777    1.025191   -0.105237
      2          6           0        2.343102    1.143988   -0.605741
      3          6           0        1.518349    0.037126   -0.738726
      4          6           0        2.016564   -1.204211   -0.353441
      5          6           0        3.295564   -1.340350    0.147805
      6          6           0        4.105547   -0.219081    0.273966
      7          1           0        4.268715    1.894966   -0.003978
      8          1           0        1.971923    2.120562   -0.895881
      9          1           0        1.383703   -2.081019   -0.448058
     10          1           0        3.681783   -2.307043    0.445257
     11          6           0        0.117287    0.160784   -1.254075
     12          1           0       -0.027029    1.140545   -1.713904
     13          1           0       -0.040935   -0.577164   -2.044882
     14          6           0       -0.953062   -0.071900   -0.166434
     15          1           0       -0.465663   -0.444015    0.738830
     16          6           0       -1.538763    1.267869    0.230268
     17          8           0        5.360345   -0.398390    0.775699
     18          1           0        5.813855    0.451285    0.815314
     19          8           0       -0.835626    2.063061    0.854349
     20          7           0       -1.921934   -1.061353   -0.581201
     21          1           0       -1.955681   -1.335578   -1.551258
     22          7           0       -2.777459    1.549708   -0.169247
     23          1           0       -3.305061    0.835592   -0.645081
     24          6           0       -2.699652   -1.711012    0.309051
     25          6           0       -3.603547   -2.763898   -0.240629
     26          1           0       -3.369967   -3.711716    0.244000
     27          1           0       -4.632137   -2.511660    0.016289
     28          1           0       -3.521333   -2.882413   -1.318867
     29          6           0       -3.406304    2.813177    0.143205
     30          1           0       -2.872438    3.642448   -0.321269
     31          1           0       -4.425121    2.799736   -0.231257
     32          1           0       -3.429332    2.982266    1.219964
     33          8           0       -2.665807   -1.447343    1.508433
 ---------------------------------------------------------------------

 SCF Done:  E(RM06) =  -801.857315468     A.U. after   10 cycles

      1  C    Isotropic =    60.8420   Anisotropy =   134.8207

      2  C    Isotropic =    39.8656   Anisotropy =   170.8480

      3  C    Isotropic =    40.8629   Anisotropy =   191.4818

      4  C    Isotropic =    41.8061   Anisotropy =   176.7406

      5  C    Isotropic =    57.9260   Anisotropy =   156.9792

      6  C    Isotropic =    15.4971   Anisotropy =   150.2082

      7  H    Isotropic =    25.3854   Anisotropy =     5.9311

      8  H    Isotropic =    24.5777   Anisotropy =     8.2879

      9  H    Isotropic =    24.5827   Anisotropy =     9.4285

     10  H    Isotropic =    24.8786   Anisotropy =     6.2323

     11  C    Isotropic =   134.6009   Anisotropy =    24.1955

     12  H    Isotropic =    29.2388   Anisotropy =     3.7250

     13  H    Isotropic =    29.6878   Anisotropy =     4.1716

     14  C    Isotropic =   119.1260   Anisotropy =    17.9498

     15  H    Isotropic =    27.7073   Anisotropy =     4.5230

     16  C    Isotropic =    -1.4709   Anisotropy =   135.4832

     17  O    Isotropic =   199.2650   Anisotropy =    62.0154

     18  H    Isotropic =    27.7636   Anisotropy =    12.9031

     19  O    Isotropic =   -75.2366   Anisotropy =   636.6641

     20  N    Isotropic =   106.6315   Anisotropy =   156.4608

     21  H    Isotropic =    26.4516   Anisotropy =     6.0895

     22  N    Isotropic =   149.5503   Anisotropy =   101.3448

     23  H    Isotropic =    26.3279   Anisotropy =     8.5343

     24  C    Isotropic =     3.1220   Anisotropy =   130.9086

     25  C    Isotropic =   155.8445   Anisotropy =    41.6017

     26  H    Isotropic =    29.7677   Anisotropy =     7.0951

     27  H    Isotropic =    29.8712   Anisotropy =     6.8197

     28  H    Isotropic =    30.5487   Anisotropy =     5.4488

     29  C    Isotropic =   150.2135   Anisotropy =    39.5356

     30  H    Isotropic =    29.1822   Anisotropy =     9.4443

     31  H    Isotropic =    29.8136   Anisotropy =     8.8853

     32  H    Isotropic =    29.0400   Anisotropy =     9.3187

     33  O    Isotropic =  -117.5896   Anisotropy =   690.0725

 The electronic state is 1-A.
 Alpha  occ. eigenvalues --  -19.24376 -19.18118 -19.16912 -14.43234 -14.41950
 Alpha  occ. eigenvalues --  -10.34910 -10.33304 -10.30240 -10.29164 -10.27131
 Alpha  occ. eigenvalues --  -10.25957 -10.25319 -10.24449 -10.24262 -10.24125
 Alpha  occ. eigenvalues --  -10.23840 -10.23560  -1.08565  -1.06208  -1.04699
 Alpha  occ. eigenvalues --   -0.96064  -0.93886  -0.87304  -0.81433  -0.77273
 Alpha  occ. eigenvalues --   -0.76142  -0.74258  -0.71775  -0.66751  -0.63583
 Alpha  occ. eigenvalues --   -0.61962  -0.60024  -0.59794  -0.55954  -0.55260
 Alpha  occ. eigenvalues --   -0.52118  -0.50791  -0.49455  -0.48680  -0.47254
 Alpha  occ. eigenvalues --   -0.46870  -0.45614  -0.44709  -0.43586  -0.43177
 Alpha  occ. eigenvalues --   -0.42724  -0.42492  -0.42257  -0.41535  -0.41111
 Alpha  occ. eigenvalues --   -0.40112  -0.39223  -0.38010  -0.36784  -0.36123
 Alpha  occ. eigenvalues --   -0.34754  -0.34505  -0.30301  -0.27684  -0.27420
 Alpha  occ. eigenvalues --   -0.26706  -0.25955  -0.23106
 Alpha virt. eigenvalues --   -0.00810   0.00338   0.01216   0.01733   0.02755
 Alpha virt. eigenvalues --    0.03577   0.03660   0.04829   0.05373   0.06429
 Alpha virt. eigenvalues --    0.07130   0.07875   0.08881   0.09630   0.10179

 Mulliken charges:
               1
     1  C   -0.237367
     2  C   -0.179576
     3  C    0.159568
     4  C   -0.218184
     5  C   -0.175669
     6  C    0.287305
     7  H    0.113409
     8  H    0.135456
     9  H    0.151392
    10  H    0.122074
    11  C   -0.444315
    12  H    0.195570
    13  H    0.201616
    14  C   -0.101187
    15  H    0.235912
    16  C    0.274559
    17  O   -0.296227
    18  H    0.188524
    19  O   -0.401548
    20  N   -0.225244
    21  H    0.154873
    22  N   -0.142388
    23  H    0.140005
    24  C    0.267907
    25  C   -0.312917
    26  H    0.124012
    27  H    0.118914
    28  H    0.098103
    29  C   -0.167937
    30  H    0.109733
    31  H    0.084328
    32  H    0.118956
    33  O   -0.379655
 Sum of Mulliken charges =   0.00000

 Dipole moment (field-independent basis, Debye):
    X=             -1.9627    Y=             -0.5825    Z=             -5.2646  Tot=              5.6487
 Quadrupole moment (field-independent basis, Debye-Ang):
   XX=            -81.5108   YY=            -94.7470   ZZ=           -106.1927
   XY=              7.1084   XZ=             12.3593   YZ=              2.1051

 Normal termination of Gaussian 09 at Wed Jun 25 06:07:14 2014.
