 Gaussian 09, Revision D.01,
 Gaussian 09:  EM64L-G09RevD.01 24-Apr-2013

 ----------------------------------------------------------------------
 #p nmr=(giao,mixed,spinspin) m06/cc-pvtz scf=tight integral=(grid=ultr
 afine)
 ----------------------------------------------------------------------

 ------------------
 NMR spin-spin scan
 ------------------
 Symbolic Z-matrix:
 Charge =  0 Multiplicity = 1

 SCF Done:  E(RM06) =  -801.913032670     A.U. after   15 cycles
 Normal termination of Gaussian 09 at Wed Jun 25 01:27:41 2014.

 ----------------------------------------------------------------------
 #P Geom=AllCheck Guess=TCheck SCRF=Check GenChk RM06/ChkBas NMR=ReadFC
  IOp(3/6=22)
 ----------------------------------------------------------------------

 Structure from the checkpoint file:  "/home/ztw1e12/tyrosine_scan/tyrosine_chi1_scan/Gau-6598.chk"
 ------------------
 NMR spin-spin scan
 ------------------
 Charge =  0 Multiplicity = 1

                         Standard orientation:
 ---------------------------------------------------------------------
 Center     Atomic      Atomic             Coordinates (Angstroms)
 Number     Number       Type             X           Y           Z
 ---------------------------------------------------------------------
      1          6           0       -3.418776   -1.091884    0.576843
      2          6           0       -2.126707   -1.257270    0.113735
      3          6           0       -1.522326   -0.299770   -0.692155
      4          6           0       -2.249853    0.837622   -1.018726
      5          6           0       -3.544046    1.018691   -0.563197
      6          6           0       -4.130472    0.049701    0.235751
      7          1           0       -3.886561   -1.844523    1.201247
      8          1           0       -1.572099   -2.149293    0.385409
      9          1           0       -1.793929    1.595938   -1.646099
     10          1           0       -4.110774    1.903564   -0.823945
     11          6           0       -0.106845   -0.474893   -1.150345
     12          1           0        0.052844   -1.520960   -1.420673
     13          1           0        0.077113    0.109662   -2.054089
     14          6           0        0.927896   -0.079402   -0.076878
     15          1           0        0.423211    0.052257    0.884052
     16          6           0        1.881155   -1.240186    0.145556
     17          8           0       -5.409404    0.261486    0.658079
     18          1           0       -5.697799   -0.485698    1.194618
     19          8           0        1.486225   -2.230624    0.760749
     20          7           0        1.582492    1.161082   -0.430854
     21          1           0        1.440299    1.542859   -1.353501
     22          7           0        3.096860   -1.157354   -0.390769
     23          1           0        3.365453   -0.303581   -0.851792
     24          6           0        2.263358    1.887776    0.479513
     25          6           0        2.822533    3.188412    0.008206
     26          1           0        2.418355    3.987908    0.628752
     27          1           0        3.902539    3.177450    0.153661
     28          1           0        2.601344    3.396915   -1.036219
     29          6           0        4.057035   -2.229814   -0.261514
     30          1           0        3.689550   -3.141554   -0.732970
     31          1           0        4.982012   -1.934541   -0.746804
     32          1           0        4.264396   -2.447250    0.786488
     33          8           0        2.419537    1.491743    1.631482
 ---------------------------------------------------------------------

 SCF Done:  E(RM06) =  -801.858705425     A.U. after   10 cycles

      1  C    Isotropic =    58.5762   Anisotropy =   138.5120

      2  C    Isotropic =    40.4262   Anisotropy =   181.2398

      3  C    Isotropic =    40.4434   Anisotropy =   194.6965

      4  C    Isotropic =    42.4726   Anisotropy =   163.8060

      5  C    Isotropic =    59.5441   Anisotropy =   153.7931

      6  C    Isotropic =    15.3872   Anisotropy =   150.6737

      7  H    Isotropic =    25.2078   Anisotropy =     6.2429

      8  H    Isotropic =    24.0610   Anisotropy =     9.0896

      9  H    Isotropic =    24.7626   Anisotropy =     8.4223

     10  H    Isotropic =    25.0119   Anisotropy =     6.0295

     11  C    Isotropic =   134.2278   Anisotropy =    20.3114

     12  H    Isotropic =    28.6749   Anisotropy =     3.2734

     13  H    Isotropic =    30.1908   Anisotropy =     4.1383

     14  C    Isotropic =   117.8656   Anisotropy =    20.0722

     15  H    Isotropic =    27.9515   Anisotropy =     4.2264

     16  C    Isotropic =    -2.4741   Anisotropy =   137.1334

     17  O    Isotropic =   199.3134   Anisotropy =    62.3856

     18  H    Isotropic =    27.7518   Anisotropy =    12.9979

     19  O    Isotropic =   -70.7899   Anisotropy =   622.7851

     20  N    Isotropic =   107.7433   Anisotropy =   161.4792

     21  H    Isotropic =    26.5407   Anisotropy =     5.7630

     22  N    Isotropic =   147.8608   Anisotropy =   102.4533

     23  H    Isotropic =    26.2648   Anisotropy =     8.5290

     24  C    Isotropic =     2.5510   Anisotropy =   131.6103

     25  C    Isotropic =   156.0136   Anisotropy =    41.4290

     26  H    Isotropic =    29.8633   Anisotropy =     7.0356

     27  H    Isotropic =    29.9244   Anisotropy =     6.9202

     28  H    Isotropic =    30.5746   Anisotropy =     5.3987

     29  C    Isotropic =   150.1125   Anisotropy =    39.6325

     30  H    Isotropic =    29.1291   Anisotropy =     9.3162

     31  H    Isotropic =    29.8050   Anisotropy =     8.8532

     32  H    Isotropic =    29.0149   Anisotropy =     9.4004

     33  O    Isotropic =  -120.1252   Anisotropy =   689.8858

 The electronic state is 1-A.
 Alpha  occ. eigenvalues --  -19.24630 -19.18103 -19.17071 -14.43207 -14.41981
 Alpha  occ. eigenvalues --  -10.34852 -10.33360 -10.30526 -10.29238 -10.27133
 Alpha  occ. eigenvalues --  -10.25942 -10.25270 -10.24713 -10.24602 -10.24275
 Alpha  occ. eigenvalues --  -10.24191 -10.23806  -1.08815  -1.06213  -1.04814
 Alpha  occ. eigenvalues --   -0.96054  -0.93915  -0.87574  -0.81520  -0.77341
 Alpha  occ. eigenvalues --   -0.76427  -0.74343  -0.71858  -0.66756  -0.63973
 Alpha  occ. eigenvalues --   -0.61814  -0.60240  -0.59892  -0.56112  -0.55197
 Alpha  occ. eigenvalues --   -0.52255  -0.51048  -0.49527  -0.48770  -0.47223
 Alpha  occ. eigenvalues --   -0.46747  -0.45781  -0.45057  -0.43593  -0.43184
 Alpha  occ. eigenvalues --   -0.42981  -0.42652  -0.42265  -0.41496  -0.41247
 Alpha  occ. eigenvalues --   -0.40272  -0.39588  -0.38257  -0.36657  -0.36168
 Alpha  occ. eigenvalues --   -0.34895  -0.34806  -0.30308  -0.27714  -0.27449
 Alpha  occ. eigenvalues --   -0.27058  -0.26014  -0.23508
 Alpha virt. eigenvalues --   -0.01154   0.00137   0.01004   0.01722   0.02569
 Alpha virt. eigenvalues --    0.03065   0.03618   0.04849   0.05975   0.06745
 Alpha virt. eigenvalues --    0.07189   0.07952   0.08986   0.09860   0.10122

 Mulliken charges:
               1
     1  C   -0.238382
     2  C   -0.219960
     3  C    0.155194
     4  C   -0.211580
     5  C   -0.177758
     6  C    0.288456
     7  H    0.117110
     8  H    0.169904
     9  H    0.144759
    10  H    0.122950
    11  C   -0.454560
    12  H    0.214477
    13  H    0.192317
    14  C   -0.094179
    15  H    0.232981
    16  C    0.276527
    17  O   -0.296042
    18  H    0.189150
    19  O   -0.405352
    20  N   -0.224679
    21  H    0.157103
    22  N   -0.141245
    23  H    0.139174
    24  C    0.270853
    25  C   -0.313771
    26  H    0.124311
    27  H    0.118656
    28  H    0.097745
    29  C   -0.168210
    30  H    0.110890
    31  H    0.084154
    32  H    0.118180
    33  O   -0.379171
 Sum of Mulliken charges =   0.00000

 Dipole moment (field-independent basis, Debye):
    X=              1.0697    Y=              1.7376    Z=             -4.4601  Tot=              4.9047
 Quadrupole moment (field-independent basis, Debye-Ang):
   XX=            -86.5214   YY=            -97.3383   ZZ=           -103.5900
   XY=              8.5318   XZ=            -17.4529   YZ=             -5.1212

 Normal termination of Gaussian 09 at Wed Jun 25 06:14:30 2014.
