 Gaussian 09, Revision D.01,
 Gaussian 09:  EM64L-G09RevD.01 24-Apr-2013

 ----------------------------------------------------------------------
 #p nmr=(giao,mixed,spinspin) m06/cc-pvtz scf=tight integral=(grid=ultr
 afine)
 ----------------------------------------------------------------------

 ------------------
 NMR spin-spin scan
 ------------------
 Symbolic Z-matrix:
 Charge =  0 Multiplicity = 1

 SCF Done:  E(RM06) =  -801.912184205     A.U. after   16 cycles
 Normal termination of Gaussian 09 at Wed Jun 25 01:20:00 2014.

 ----------------------------------------------------------------------
 #P Geom=AllCheck Guess=TCheck SCRF=Check GenChk RM06/ChkBas NMR=ReadFC
  IOp(3/6=22)
 ----------------------------------------------------------------------

 Structure from the checkpoint file:  "/home/ztw1e12/tyrosine_scan/tyrosine_chi1_scan/Gau-27276.chk"
 ------------------
 NMR spin-spin scan
 ------------------
 Charge =  0 Multiplicity = 1

                         Standard orientation:
 ---------------------------------------------------------------------
 Center     Atomic      Atomic             Coordinates (Angstroms)
 Number     Number       Type             X           Y           Z
 ---------------------------------------------------------------------
      1          6           0       -3.626849    0.933765    0.248233
      2          6           0       -2.334629    0.995982    0.744604
      3          6           0       -1.505878   -0.116036    0.736172
      4          6           0       -2.006699   -1.304117    0.211878
      5          6           0       -3.290776   -1.383283   -0.288706
      6          6           0       -4.104475   -0.258122   -0.271473
      7          1           0       -4.267931    1.807738    0.259177
      8          1           0       -1.962872    1.932150    1.145879
      9          1           0       -1.373421   -2.185377    0.196740
     10          1           0       -3.678538   -2.309326   -0.693877
     11          6           0       -0.104197   -0.054389    1.261025
     12          1           0        0.047837    0.863902    1.832909
     13          1           0        0.048890   -0.883036    1.957617
     14          6           0        0.969529   -0.169392    0.161589
     15          1           0        0.518675   -0.607892   -0.733138
     16          6           0        1.388993    1.227164   -0.248916
     17          8           0       -5.364190   -0.381993   -0.777735
     18          1           0       -5.823418    0.462596   -0.708388
     19          8           0        0.608059    1.919917   -0.901451
     20          7           0        2.051732   -1.031364    0.582871
     21          1           0        2.089672   -1.329517    1.545615
     22          7           0        2.572276    1.669348    0.174605
     23          1           0        3.174485    1.034916    0.674004
     24          6           0        2.922523   -1.560720   -0.300435
     25          6           0        3.937197   -2.506443    0.250936
     26          1           0        3.895157   -3.435755   -0.315933
     27          1           0        4.929383   -2.079433    0.103183
     28          1           0        3.795233   -2.720086    1.308099
     29          6           0        3.040187    2.999595   -0.141700
     30          1           0        2.387346    3.758296    0.290582
     31          1           0        4.039090    3.128192    0.263355
     32          1           0        3.076009    3.155769   -1.220171
     33          8           0        2.884479   -1.273306   -1.494218
 ---------------------------------------------------------------------

 SCF Done:  E(RM06) =  -801.857846599     A.U. after   10 cycles

      1  C    Isotropic =    60.9923   Anisotropy =   134.8105

      2  C    Isotropic =    39.2614   Anisotropy =   170.9907

      3  C    Isotropic =    42.1079   Anisotropy =   189.7870

      4  C    Isotropic =    41.4485   Anisotropy =   178.0581

      5  C    Isotropic =    58.0420   Anisotropy =   156.8258

      6  C    Isotropic =    15.5235   Anisotropy =   150.0784

      7  H    Isotropic =    25.4049   Anisotropy =     5.9393

      8  H    Isotropic =    24.6786   Anisotropy =     8.3157

      9  H    Isotropic =    24.5624   Anisotropy =     9.4366

     10  H    Isotropic =    24.8645   Anisotropy =     6.1622

     11  C    Isotropic =   134.9843   Anisotropy =    25.7136

     12  H    Isotropic =    29.3632   Anisotropy =     3.7428

     13  H    Isotropic =    29.6043   Anisotropy =     4.4518

     14  C    Isotropic =   118.9508   Anisotropy =    17.3571

     15  H    Isotropic =    27.7509   Anisotropy =     4.7071

     16  C    Isotropic =    -0.6577   Anisotropy =   134.5730

     17  O    Isotropic =   199.3919   Anisotropy =    61.7123

     18  H    Isotropic =    27.7718   Anisotropy =    12.8977

     19  O    Isotropic =   -81.5530   Anisotropy =   645.2045

     20  N    Isotropic =   107.6310   Anisotropy =   155.0547

     21  H    Isotropic =    26.4702   Anisotropy =     6.3254

     22  N    Isotropic =   150.9093   Anisotropy =   102.1676

     23  H    Isotropic =    26.3620   Anisotropy =     8.3287

     24  C    Isotropic =     3.0656   Anisotropy =   130.8692

     25  C    Isotropic =   155.8740   Anisotropy =    41.6282

     26  H    Isotropic =    29.8082   Anisotropy =     7.2029

     27  H    Isotropic =    29.8649   Anisotropy =     6.6908

     28  H    Isotropic =    30.5467   Anisotropy =     5.4955

     29  C    Isotropic =   150.2728   Anisotropy =    39.3887

     30  H    Isotropic =    29.1860   Anisotropy =     9.4003

     31  H    Isotropic =    29.8222   Anisotropy =     8.9222

     32  H    Isotropic =    29.0634   Anisotropy =     9.3753

     33  O    Isotropic =  -118.6903   Anisotropy =   690.7848

 The electronic state is 1-A.
 Alpha  occ. eigenvalues --  -19.24316 -19.18117 -19.16858 -14.43199 -14.41838
 Alpha  occ. eigenvalues --  -10.34895 -10.33255 -10.30174 -10.29200 -10.27051
 Alpha  occ. eigenvalues --  -10.26049 -10.25308 -10.24423 -10.24194 -10.24099
 Alpha  occ. eigenvalues --  -10.23775 -10.23470  -1.08498  -1.06202  -1.04635
 Alpha  occ. eigenvalues --   -0.96041  -0.93801  -0.87249  -0.81474  -0.77250
 Alpha  occ. eigenvalues --   -0.76076  -0.74208  -0.71731  -0.66732  -0.63524
 Alpha  occ. eigenvalues --   -0.61996  -0.59930  -0.59692  -0.55900  -0.55189
 Alpha  occ. eigenvalues --   -0.52216  -0.50722  -0.49452  -0.48546  -0.47238
 Alpha  occ. eigenvalues --   -0.46843  -0.45602  -0.44673  -0.43680  -0.43141
 Alpha  occ. eigenvalues --   -0.42704  -0.42392  -0.42222  -0.41464  -0.41044
 Alpha  occ. eigenvalues --   -0.40027  -0.39202  -0.37988  -0.36843  -0.36129
 Alpha  occ. eigenvalues --   -0.34709  -0.34479  -0.30222  -0.27670  -0.27356
 Alpha  occ. eigenvalues --   -0.26602  -0.25935  -0.23017
 Alpha virt. eigenvalues --   -0.00708   0.00392   0.01325   0.01696   0.02790
 Alpha virt. eigenvalues --    0.03550   0.03642   0.04736   0.05524   0.06355
 Alpha virt. eigenvalues --    0.07126   0.07881   0.08992   0.09567   0.10224

 Mulliken charges:
               1
     1  C   -0.236803
     2  C   -0.186127
     3  C    0.169684
     4  C   -0.221253
     5  C   -0.174154
     6  C    0.286516
     7  H    0.112190
     8  H    0.135764
     9  H    0.151842
    10  H    0.121868
    11  C   -0.447668
    12  H    0.195849
    13  H    0.201162
    14  C   -0.099928
    15  H    0.235794
    16  C    0.274839
    17  O   -0.296176
    18  H    0.188217
    19  O   -0.396813
    20  N   -0.225307
    21  H    0.154117
    22  N   -0.142583
    23  H    0.139699
    24  C    0.267545
    25  C   -0.313362
    26  H    0.123896
    27  H    0.118753
    28  H    0.098460
    29  C   -0.170305
    30  H    0.110029
    31  H    0.084314
    32  H    0.118931
    33  O   -0.378990
 Sum of Mulliken charges =   0.00000

 Dipole moment (field-independent basis, Debye):
    X=              2.0194    Y=             -0.3773    Z=              5.4857  Tot=              5.8577
 Quadrupole moment (field-independent basis, Debye-Ang):
   XX=            -82.5525   YY=            -93.3130   ZZ=           -106.3323
   XY=             -6.6118   XZ=             11.6339   YZ=             -0.8595

 Normal termination of Gaussian 09 at Wed Jun 25 06:06:35 2014.
