 Gaussian 09, Revision D.01,
 Gaussian 09:  EM64L-G09RevD.01 24-Apr-2013

 ----------------------------------------------------------------------
 #p nmr=(giao,mixed,spinspin) m06/cc-pvtz scf=tight integral=(grid=ultr
 afine)
 ----------------------------------------------------------------------

 ------------------
 NMR spin-spin scan
 ------------------
 Symbolic Z-matrix:
 Charge =  0 Multiplicity = 1

 SCF Done:  E(RM06) =  -801.920987610     A.U. after   16 cycles
 Normal termination of Gaussian 09 at Tue Jun 24 12:54:59 2014.

 ----------------------------------------------------------------------
 #P Geom=AllCheck Guess=TCheck SCRF=Check GenChk RM06/ChkBas NMR=ReadFC
  IOp(3/6=22)
 ----------------------------------------------------------------------

 Structure from the checkpoint file:  "/home/ztw1e12/tyrosine_scan/tyrosine_chi1_scan/Gau-30770.chk"
 ------------------
 NMR spin-spin scan
 ------------------
 Charge =  0 Multiplicity = 1

                         Standard orientation:
 ---------------------------------------------------------------------
 Center     Atomic      Atomic             Coordinates (Angstroms)
 Number     Number       Type             X           Y           Z
 ---------------------------------------------------------------------
      1          6           0       -3.406131    0.342603    0.889275
      2          6           0       -2.172741   -0.016524    1.403798
      3          6           0       -1.312548   -0.849885    0.700539
      4          6           0       -1.724818   -1.313588   -0.545175
      5          6           0       -2.952781   -0.963052   -1.075175
      6          6           0       -3.796601   -0.129799   -0.355161
      7          1           0       -4.072688    0.990318    1.446992
      8          1           0       -1.871445    0.359558    2.375201
      9          1           0       -1.062598   -1.959855   -1.112108
     10          1           0       -3.270071   -1.328634   -2.043525
     11          6           0        0.042787   -1.201222    1.233078
     12          1           0        0.010795   -1.181187    2.322747
     13          1           0        0.291494   -2.220529    0.938468
     14          6           0        1.198584   -0.285271    0.782552
     15          1           0        1.671568    0.163858    1.656375
     16          6           0        2.273871   -1.060016    0.015859
     17          8           0       -4.997017    0.191518   -0.913368
     18          1           0       -5.481467    0.779479   -0.322715
     19          8           0        2.040967   -2.107214   -0.582441
     20          7           0        0.763717    0.817032   -0.061792
     21          1           0       -0.090399    0.706811   -0.589212
     22          7           0        3.478628   -0.483130    0.022985
     23          1           0        3.555599    0.436280    0.438130
     24          6           0        1.361517    2.021504   -0.049641
     25          6           0        0.719468    3.085613   -0.876843
     26          1           0        0.450787    3.915621   -0.223399
     27          1           0        1.445936    3.461390   -1.596817
     28          1           0       -0.168313    2.744151   -1.404912
     29          6           0        4.581386   -1.023250   -0.738160
     30          1           0        4.369065   -1.026304   -1.808519
     31          1           0        5.463010   -0.415240   -0.559407
     32          1           0        4.796366   -2.046717   -0.431916
     33          8           0        2.380299    2.245821    0.605382
 ---------------------------------------------------------------------

 SCF Done:  E(RM06) =  -801.866603768     A.U. after   10 cycles

      1  C    Isotropic =    60.0448   Anisotropy =   136.5979

      2  C    Isotropic =    39.2200   Anisotropy =   172.1290

      3  C    Isotropic =    44.7857   Anisotropy =   194.0802

      4  C    Isotropic =    38.6398   Anisotropy =   183.1477

      5  C    Isotropic =    57.7815   Anisotropy =   157.4016

      6  C    Isotropic =    15.5188   Anisotropy =   151.0005

      7  H    Isotropic =    25.3126   Anisotropy =     5.6970

      8  H    Isotropic =    24.7294   Anisotropy =     8.1400

      9  H    Isotropic =    24.1135   Anisotropy =     8.9742

     10  H    Isotropic =    24.7617   Anisotropy =     6.0044

     11  C    Isotropic =   148.1537   Anisotropy =    27.1425

     12  H    Isotropic =    29.2916   Anisotropy =     7.9093

     13  H    Isotropic =    27.9260   Anisotropy =     6.1711

     14  C    Isotropic =   129.9254   Anisotropy =    27.4600

     15  H    Isotropic =    27.3711   Anisotropy =     4.7759

     16  C    Isotropic =    -1.4434   Anisotropy =   126.2133

     17  O    Isotropic =   198.7408   Anisotropy =    61.0788

     18  H    Isotropic =    27.7216   Anisotropy =    12.9139

     19  O    Isotropic =   -73.3879   Anisotropy =   631.3087

     20  N    Isotropic =   106.6926   Anisotropy =   119.9986

     21  H    Isotropic =    27.1630   Anisotropy =    11.8978

     22  N    Isotropic =   135.0074   Anisotropy =   108.7406

     23  H    Isotropic =    24.9274   Anisotropy =     9.0487

     24  C    Isotropic =     1.3842   Anisotropy =   135.1441

     25  C    Isotropic =   155.8804   Anisotropy =    40.9644

     26  H    Isotropic =    30.2224   Anisotropy =     6.7958

     27  H    Isotropic =    30.1647   Anisotropy =     7.5424

     28  H    Isotropic =    31.1637   Anisotropy =     4.3185

     29  C    Isotropic =   150.2864   Anisotropy =    38.7716

     30  H    Isotropic =    29.3256   Anisotropy =     9.0728

     31  H    Isotropic =    29.7386   Anisotropy =     8.8570

     32  H    Isotropic =    29.0659   Anisotropy =     9.2216

     33  O    Isotropic =   -67.5796   Anisotropy =   606.5745

 The electronic state is 1-A.
 Alpha  occ. eigenvalues --  -19.25387 -19.18417 -19.17574 -14.42638 -14.40933
 Alpha  occ. eigenvalues --  -10.34941 -10.33276 -10.31337 -10.29358 -10.26528
 Alpha  occ. eigenvalues --  -10.25299 -10.25220 -10.25087 -10.24892 -10.24856
 Alpha  occ. eigenvalues --  -10.24704 -10.24519  -1.09604  -1.06371  -1.05058
 Alpha  occ. eigenvalues --   -0.95457  -0.93491  -0.88151  -0.81204  -0.77396
 Alpha  occ. eigenvalues --   -0.77156  -0.74340  -0.71684  -0.66425  -0.64323
 Alpha  occ. eigenvalues --   -0.61546  -0.60459  -0.58654  -0.56779  -0.54861
 Alpha  occ. eigenvalues --   -0.51839  -0.50784  -0.50485  -0.48187  -0.47266
 Alpha  occ. eigenvalues --   -0.46473  -0.45978  -0.45272  -0.44286  -0.43978
 Alpha  occ. eigenvalues --   -0.43304  -0.42477  -0.42382  -0.41531  -0.40881
 Alpha  occ. eigenvalues --   -0.39886  -0.39221  -0.37994  -0.36913  -0.36597
 Alpha  occ. eigenvalues --   -0.35529  -0.35122  -0.30112  -0.28166  -0.27879
 Alpha  occ. eigenvalues --   -0.27150  -0.26011  -0.24328
 Alpha virt. eigenvalues --   -0.01932  -0.00002   0.01324   0.01763   0.02760
 Alpha virt. eigenvalues --    0.03875   0.04052   0.05095   0.05969   0.07028
 Alpha virt. eigenvalues --    0.07620   0.08388   0.09905   0.10301   0.10844

 Mulliken charges:
               1
     1  C   -0.233408
     2  C   -0.240441
     3  C    0.130252
     4  C   -0.261350
     5  C   -0.170423
     6  C    0.287563
     7  H    0.119541
     8  H    0.157263
     9  H    0.192445
    10  H    0.131153
    11  C   -0.430284
    12  H    0.180343
    13  H    0.220791
    14  C   -0.112781
    15  H    0.200769
    16  C    0.304332
    17  O   -0.291518
    18  H    0.188620
    19  O   -0.397960
    20  N   -0.198256
    21  H    0.192044
    22  N   -0.185709
    23  H    0.175231
    24  C    0.314126
    25  C   -0.309944
    26  H    0.116397
    27  H    0.115990
    28  H    0.101814
    29  C   -0.175982
    30  H    0.104788
    31  H    0.091092
    32  H    0.114430
    33  O   -0.430927
 Sum of Mulliken charges =   0.00000

 Dipole moment (field-independent basis, Debye):
    X=             -2.0666    Y=              2.5033    Z=              0.6153  Tot=              3.3039
 Quadrupole moment (field-independent basis, Debye-Ang):
   XX=            -90.0360   YY=           -106.9027   ZZ=            -97.9659
   XY=             -8.3141   XZ=             -6.3633   YZ=             -4.5527

 Normal termination of Gaussian 09 at Tue Jun 24 17:56:39 2014.
