 Gaussian 09, Revision D.01,
 Gaussian 09:  EM64L-G09RevD.01 24-Apr-2013

 ----------------------------------------------------------------------
 #p nmr=(giao,mixed,spinspin) m06/cc-pvtz scf=tight integral=(grid=ultr
 afine)
 ----------------------------------------------------------------------

 ------------------
 NMR spin-spin scan
 ------------------
 Symbolic Z-matrix:
 Charge =  0 Multiplicity = 1

 SCF Done:  E(RM06) =  -801.916135876     A.U. after   15 cycles
 Normal termination of Gaussian 09 at Wed Jun 25 10:23:41 2014.

 ----------------------------------------------------------------------
 #P Geom=AllCheck Guess=TCheck SCRF=Check GenChk RM06/ChkBas NMR=ReadFC
  IOp(3/6=22)
 ----------------------------------------------------------------------

 Structure from the checkpoint file:  "/home/ztw1e12/tyrosine_scan/tyrosine_chi1_scan/Gau-3919.chk"
 ------------------
 NMR spin-spin scan
 ------------------
 Charge =  0 Multiplicity = 1

                         Standard orientation:
 ---------------------------------------------------------------------
 Center     Atomic      Atomic             Coordinates (Angstroms)
 Number     Number       Type             X           Y           Z
 ---------------------------------------------------------------------
      1          6           0       -3.406781   -0.988721    0.834675
      2          6           0       -2.098941   -1.257594    0.478298
      3          6           0       -1.480449   -0.573297   -0.561564
      4          6           0       -2.209063    0.399558   -1.233239
      5          6           0       -3.519286    0.682580   -0.888137
      6          6           0       -4.119677   -0.015759    0.147365
      7          1           0       -3.886465   -1.530608    1.641739
      8          1           0       -1.541704   -2.017828    1.016738
      9          1           0       -1.742215    0.943375   -2.047411
     10          1           0       -4.086831    1.438936   -1.415303
     11          6           0       -0.054348   -0.866365   -0.912509
     12          1           0        0.098288   -1.948403   -0.897817
     13          1           0        0.182246   -0.526302   -1.923858
     14          6           0        0.941030   -0.240657    0.071367
     15          1           0        0.501448   -0.220982    1.072796
     16          6           0        2.151722   -1.150160    0.193106
     17          8           0       -5.413319    0.285921    0.452516
     18          1           0       -5.709232   -0.275615    1.177737
     19          8           0        2.089952   -2.136009    0.926630
     20          7           0        1.266694    1.105476   -0.346001
     21          1           0        0.855184    1.460753   -1.196650
     22          7           0        3.211827   -0.875502   -0.567213
     23          1           0        3.224120   -0.007614   -1.078492
     24          6           0        1.921422    1.955588    0.471860
     25          6           0        2.106396    3.350700   -0.024204
     26          1           0        1.641399    4.036872    0.683484
     27          1           0        3.172137    3.577181   -0.043900
     28          1           0        1.684630    3.514221   -1.013696
     29          6           0        4.411003   -1.680402   -0.512124
     30          1           0        4.191932   -2.716997   -0.766562
     31          1           0        5.130274   -1.291131   -1.226064
     32          1           0        4.857072   -1.659270    0.482965
     33          8           0        2.350854    1.590185    1.563031
 ---------------------------------------------------------------------

 SCF Done:  E(RM06) =  -801.861835326     A.U. after   10 cycles

      1  C    Isotropic =    58.3654   Anisotropy =   139.1709

      2  C    Isotropic =    40.6345   Anisotropy =   179.8989

      3  C    Isotropic =    41.3679   Anisotropy =   193.7037

      4  C    Isotropic =    42.1210   Anisotropy =   163.1211

      5  C    Isotropic =    59.5824   Anisotropy =   153.9697

      6  C    Isotropic =    15.3725   Anisotropy =   150.7012

      7  H    Isotropic =    25.1914   Anisotropy =     6.1804

      8  H    Isotropic =    24.2256   Anisotropy =     9.1018

      9  H    Isotropic =    24.7778   Anisotropy =     8.2867

     10  H    Isotropic =    24.9945   Anisotropy =     6.0515

     11  C    Isotropic =   135.3550   Anisotropy =    18.4143

     12  H    Isotropic =    28.6211   Anisotropy =     4.1724

     13  H    Isotropic =    30.1084   Anisotropy =     3.8675

     14  C    Isotropic =   115.4951   Anisotropy =    25.3613

     15  H    Isotropic =    28.0100   Anisotropy =     3.4359

     16  C    Isotropic =    -2.1826   Anisotropy =   135.9303

     17  O    Isotropic =   199.0056   Anisotropy =    62.2128

     18  H    Isotropic =    27.7418   Anisotropy =    13.0473

     19  O    Isotropic =   -79.6119   Anisotropy =   628.3489

     20  N    Isotropic =   110.7436   Anisotropy =   156.3523

     21  H    Isotropic =    26.4117   Anisotropy =     5.9097

     22  N    Isotropic =   148.8636   Anisotropy =   103.0888

     23  H    Isotropic =    26.3657   Anisotropy =     8.3650

     24  C    Isotropic =     2.1063   Anisotropy =   132.0078

     25  C    Isotropic =   156.2776   Anisotropy =    41.0429

     26  H    Isotropic =    29.9617   Anisotropy =     6.9473

     27  H    Isotropic =    29.9673   Anisotropy =     7.0469

     28  H    Isotropic =    30.6011   Anisotropy =     5.3243

     29  C    Isotropic =   150.1434   Anisotropy =    39.6345

     30  H    Isotropic =    29.0140   Anisotropy =     9.1098

     31  H    Isotropic =    29.8338   Anisotropy =     8.8967

     32  H    Isotropic =    29.1502   Anisotropy =     9.6647

     33  O    Isotropic =  -121.6117   Anisotropy =   689.4745

 The electronic state is 1-A.
 Alpha  occ. eigenvalues --  -19.25038 -19.18072 -19.16931 -14.43094 -14.41787
 Alpha  occ. eigenvalues --  -10.34790 -10.33214 -10.30992 -10.29205 -10.26946
 Alpha  occ. eigenvalues --  -10.25965 -10.25174 -10.25172 -10.25108 -10.24870
 Alpha  occ. eigenvalues --  -10.24725 -10.24276  -1.09254  -1.06170  -1.04640
 Alpha  occ. eigenvalues --   -0.95953  -0.93748  -0.88047  -0.81740  -0.77408
 Alpha  occ. eigenvalues --   -0.76962  -0.74424  -0.71832  -0.66765  -0.64456
 Alpha  occ. eigenvalues --   -0.61690  -0.60693  -0.59651  -0.56579  -0.54912
 Alpha  occ. eigenvalues --   -0.52575  -0.51178  -0.49680  -0.48830  -0.47086
 Alpha  occ. eigenvalues --   -0.46659  -0.45782  -0.45479  -0.44111  -0.43559
 Alpha  occ. eigenvalues --   -0.43420  -0.42486  -0.42123  -0.41443  -0.41241
 Alpha  occ. eigenvalues --   -0.40309  -0.39593  -0.38660  -0.36806  -0.36288
 Alpha  occ. eigenvalues --   -0.35408  -0.35158  -0.30099  -0.27692  -0.27520
 Alpha  occ. eigenvalues --   -0.27306  -0.25950  -0.23964
 Alpha virt. eigenvalues --   -0.01708   0.00052   0.00707   0.01783   0.02227
 Alpha virt. eigenvalues --    0.02926   0.03971   0.04829   0.05807   0.06715
 Alpha virt. eigenvalues --    0.06954   0.07798   0.09376   0.09909   0.10135

 Mulliken charges:
               1
     1  C   -0.239852
     2  C   -0.224870
     3  C    0.190915
     4  C   -0.235770
     5  C   -0.173579
     6  C    0.287728
     7  H    0.117002
     8  H    0.163996
     9  H    0.148270
    10  H    0.123764
    11  C   -0.483525
    12  H    0.221780
    13  H    0.202592
    14  C   -0.096870
    15  H    0.241235
    16  C    0.270447
    17  O   -0.294468
    18  H    0.189285
    19  O   -0.399500
    20  N   -0.230940
    21  H    0.164822
    22  N   -0.146334
    23  H    0.139450
    24  C    0.273933
    25  C   -0.313041
    26  H    0.123503
    27  H    0.117950
    28  H    0.097542
    29  C   -0.169684
    30  H    0.114522
    31  H    0.083958
    32  H    0.114894
    33  O   -0.379157
 Sum of Mulliken charges =   0.00000

 Dipole moment (field-independent basis, Debye):
    X=             -0.7247    Y=              2.0990    Z=             -4.2700  Tot=              4.8129
 Quadrupole moment (field-independent basis, Debye-Ang):
   XX=            -91.1444   YY=            -99.7300   ZZ=           -101.5723
   XY=              8.2835   XZ=            -20.5819   YZ=             -4.5632

 Normal termination of Gaussian 09 at Wed Jun 25 15:16:10 2014.
