 Gaussian 09, Revision D.01,
 Gaussian 09:  EM64L-G09RevD.01 24-Apr-2013

 ----------------------------------------------------------------------
 #p nmr=(giao,mixed,spinspin) m06/cc-pvtz scf=tight integral=(grid=ultr
 afine)
 ----------------------------------------------------------------------

 ------------------
 NMR spin-spin scan
 ------------------
 Symbolic Z-matrix:
 Charge =  0 Multiplicity = 1

 SCF Done:  E(RM06) =  -801.924691066     A.U. after   16 cycles
 Normal termination of Gaussian 09 at Tue Jun 24 12:41:34 2014.

 ----------------------------------------------------------------------
 #P Geom=AllCheck Guess=TCheck SCRF=Check GenChk RM06/ChkBas NMR=ReadFC
  IOp(3/6=22)
 ----------------------------------------------------------------------

 Structure from the checkpoint file:  "/home/ztw1e12/tyrosine_scan/tyrosine_chi1_scan/Gau-2280.chk"
 ------------------
 NMR spin-spin scan
 ------------------
 Charge =  0 Multiplicity = 1

                         Standard orientation:
 ---------------------------------------------------------------------
 Center     Atomic      Atomic             Coordinates (Angstroms)
 Number     Number       Type             X           Y           Z
 ---------------------------------------------------------------------
      1          6           0       -3.177809   -0.254596    1.282607
      2          6           0       -1.889626   -0.749616    1.198338
      3          6           0       -1.316796   -1.070035   -0.027616
      4          6           0       -2.078907   -0.881344   -1.173273
      5          6           0       -3.370658   -0.388819   -1.107581
      6          6           0       -3.920449   -0.071660    0.124233
      7          1           0       -3.618427   -0.009025    2.242234
      8          1           0       -1.314682   -0.892435    2.107217
      9          1           0       -1.650595   -1.124968   -2.139584
     10          1           0       -3.960872   -0.244662   -2.003629
     11          6           0        0.093042   -1.571268   -0.105374
     12          1           0        0.254058   -2.398968    0.588409
     13          1           0        0.284095   -1.958856   -1.109530
     14          6           0        1.126705   -0.500678    0.207727
     15          1           0        1.061430   -0.241363    1.269379
     16          6           0        2.551896   -0.992049   -0.043992
     17          8           0       -5.193467    0.415447    0.147157
     18          1           0       -5.447793    0.603129    1.057690
     19          8           0        2.796455   -2.054226   -0.610448
     20          7           0        0.847063    0.721797   -0.528659
     21          1           0        0.321851    0.643820   -1.387573
     22          7           0        3.506081   -0.175102    0.409562
     23          1           0        3.216060    0.693305    0.843271
     24          6           0        1.127789    1.948895   -0.060603
     25          6           0        0.637068    3.097978   -0.876222
     26          1           0       -0.058401    3.679712   -0.270983
     27          1           0        1.478842    3.746261   -1.117393
     28          1           0        0.141254    2.792469   -1.794909
     29          6           0        4.907853   -0.466161    0.220469
     30          1           0        5.147946   -0.585106   -0.836707
     31          1           0        5.494727    0.354945    0.620638
     32          1           0        5.194658   -1.382640    0.737684
     33          8           0        1.752411    2.125484    0.987689
 ---------------------------------------------------------------------

 SCF Done:  E(RM06) =  -801.870425667     A.U. after   10 cycles

      1  C    Isotropic =    58.6885   Anisotropy =   139.1986

      2  C    Isotropic =    42.0666   Anisotropy =   180.5650

      3  C    Isotropic =    42.8247   Anisotropy =   196.3572

      4  C    Isotropic =    40.3276   Anisotropy =   166.2697

      5  C    Isotropic =    58.6957   Anisotropy =   155.9479

      6  C    Isotropic =    15.5988   Anisotropy =   150.4757

      7  H    Isotropic =    25.2828   Anisotropy =     5.9460

      8  H    Isotropic =    24.6000   Anisotropy =     8.9667

      9  H    Isotropic =    24.6422   Anisotropy =     7.9045

     10  H    Isotropic =    24.8889   Anisotropy =     5.7579

     11  C    Isotropic =   142.9642   Anisotropy =    31.4870

     12  H    Isotropic =    28.9018   Anisotropy =     6.2805

     13  H    Isotropic =    28.9919   Anisotropy =     5.4479

     14  C    Isotropic =   125.3896   Anisotropy =    33.0839

     15  H    Isotropic =    27.5402   Anisotropy =     3.3424

     16  C    Isotropic =    -0.7323   Anisotropy =   122.3355

     17  O    Isotropic =   199.2816   Anisotropy =    62.5066

     18  H    Isotropic =    27.7698   Anisotropy =    12.9515

     19  O    Isotropic =   -88.0829   Anisotropy =   645.9085

     20  N    Isotropic =   105.0098   Anisotropy =   121.5735

     21  H    Isotropic =    26.8461   Anisotropy =     5.6821

     22  N    Isotropic =   135.7326   Anisotropy =   111.7961

     23  H    Isotropic =    24.4344   Anisotropy =    11.0424

     24  C    Isotropic =     0.6058   Anisotropy =   137.3850

     25  C    Isotropic =   155.9049   Anisotropy =    41.1563

     26  H    Isotropic =    30.2693   Anisotropy =     6.1010

     27  H    Isotropic =    30.1173   Anisotropy =     7.8316

     28  H    Isotropic =    30.9453   Anisotropy =     4.9405

     29  C    Isotropic =   150.7795   Anisotropy =    38.0984

     30  H    Isotropic =    29.2322   Anisotropy =     9.1473

     31  H    Isotropic =    29.7527   Anisotropy =     8.6351

     32  H    Isotropic =    29.1862   Anisotropy =     9.6030

     33  O    Isotropic =   -66.8141   Anisotropy =   601.9659

 The electronic state is 1-A.
 Alpha  occ. eigenvalues --  -19.25262 -19.18752 -19.17330 -14.43091 -14.40618
 Alpha  occ. eigenvalues --  -10.35311 -10.33216 -10.31204 -10.29477 -10.26429
 Alpha  occ. eigenvalues --  -10.25242 -10.25168 -10.25132 -10.25117 -10.25022
 Alpha  occ. eigenvalues --  -10.24954 -10.24499  -1.09467  -1.06671  -1.04888
 Alpha  occ. eigenvalues --   -0.95862  -0.93281  -0.88148  -0.81619  -0.77436
 Alpha  occ. eigenvalues --   -0.77182  -0.74453  -0.71735  -0.66316  -0.64538
 Alpha  occ. eigenvalues --   -0.61511  -0.60742  -0.58590  -0.56788  -0.55176
 Alpha  occ. eigenvalues --   -0.51953  -0.51274  -0.50174  -0.48588  -0.46910
 Alpha  occ. eigenvalues --   -0.46732  -0.45801  -0.45642  -0.44361  -0.43943
 Alpha  occ. eigenvalues --   -0.43397  -0.42788  -0.42502  -0.41687  -0.40846
 Alpha  occ. eigenvalues --   -0.39651  -0.38880  -0.38193  -0.37493  -0.36594
 Alpha  occ. eigenvalues --   -0.35505  -0.35467  -0.30390  -0.28371  -0.27836
 Alpha  occ. eigenvalues --   -0.26935  -0.25984  -0.24182
 Alpha virt. eigenvalues --   -0.01956   0.00097   0.01086   0.01908   0.02339
 Alpha virt. eigenvalues --    0.03582   0.04082   0.04720   0.05625   0.06787
 Alpha virt. eigenvalues --    0.07638   0.08595   0.09130   0.10373   0.10792

 Mulliken charges:
               1
     1  C   -0.232401
     2  C   -0.241334
     3  C    0.189570
     4  C   -0.274569
     5  C   -0.166485
     6  C    0.285215
     7  H    0.117095
     8  H    0.156310
     9  H    0.172549
    10  H    0.127453
    11  C   -0.429098
    12  H    0.186463
    13  H    0.216271
    14  C   -0.157470
    15  H    0.223902
    16  C    0.308151
    17  O   -0.294129
    18  H    0.189019
    19  O   -0.395889
    20  N   -0.176499
    21  H    0.160729
    22  N   -0.193781
    23  H    0.183924
    24  C    0.316874
    25  C   -0.305305
    26  H    0.118829
    27  H    0.115552
    28  H    0.100402
    29  C   -0.181557
    30  H    0.109208
    31  H    0.091137
    32  H    0.109973
    33  O   -0.430109
 Sum of Mulliken charges =   0.00000

 Dipole moment (field-independent basis, Debye):
    X=             -1.9706    Y=              2.3435    Z=              0.1995  Tot=              3.0684
 Quadrupole moment (field-independent basis, Debye-Ang):
   XX=            -96.2204   YY=           -108.0598   ZZ=            -94.0708
   XY=              2.8131   XZ=             -6.2366   YZ=             -7.4691

 Normal termination of Gaussian 09 at Tue Jun 24 17:40:42 2014.
