 Gaussian 09, Revision D.01,
 Gaussian 09:  EM64L-G09RevD.01 24-Apr-2013

 ----------------------------------------------------------------------
 #p nmr=(giao,mixed,spinspin) m06/cc-pvtz scf=tight integral=(grid=ultr
 afine)
 ----------------------------------------------------------------------

 ------------------
 NMR spin-spin scan
 ------------------
 Symbolic Z-matrix:
 Charge =  0 Multiplicity = 1

 SCF Done:  E(RM06) =  -801.908087898     A.U. after   16 cycles
 Normal termination of Gaussian 09 at Wed Jun 25 01:50:43 2014.

 ----------------------------------------------------------------------
 #P Geom=AllCheck Guess=TCheck SCRF=Check GenChk RM06/ChkBas NMR=ReadFC
  IOp(3/6=22)
 ----------------------------------------------------------------------

 Structure from the checkpoint file:  "/home/ztw1e12/tyrosine_scan/tyrosine_chi1_scan/Gau-15257.chk"
 ------------------
 NMR spin-spin scan
 ------------------
 Charge =  0 Multiplicity = 1

                         Standard orientation:
 ---------------------------------------------------------------------
 Center     Atomic      Atomic             Coordinates (Angstroms)
 Number     Number       Type             X           Y           Z
 ---------------------------------------------------------------------
      1          6           0        2.831089    0.277427   -1.240825
      2          6           0        1.572742   -0.298232   -1.255149
      3          6           0        1.159002   -1.155375   -0.243008
      4          6           0        2.053464   -1.434747    0.783860
      5          6           0        3.314719   -0.870265    0.813992
      6          6           0        3.702071   -0.004444   -0.198593
      7          1           0        3.147496    0.943399   -2.035604
      8          1           0        0.894086   -0.074097   -2.071439
      9          1           0        1.749039   -2.102341    1.582381
     10          1           0        4.007768   -1.088454    1.616511
     11          6           0       -0.229862   -1.717937   -0.233994
     12          1           0       -0.525583   -1.922413   -1.266161
     13          1           0       -0.241268   -2.673501    0.289620
     14          6           0       -1.320582   -0.807750    0.392956
     15          1           0       -1.634659   -1.227868    1.350158
     16          6           0       -0.764066    0.563848    0.739511
     17          8           0        4.950377    0.536645   -0.127292
     18          1           0        5.089011    1.127408   -0.876389
     19          8           0       -0.179492    0.734899    1.807521
     20          7           0       -2.469840   -0.742573   -0.482241
     21          1           0       -2.376940   -1.051731   -1.437797
     22          7           0       -0.897828    1.528431   -0.173326
     23          1           0       -1.318813    1.295588   -1.059158
     24          6           0       -3.652111   -0.250482   -0.064147
     25          6           0       -4.758853   -0.236463   -1.066122
     26          1           0       -5.599206   -0.804996   -0.668521
     27          1           0       -5.096637    0.791052   -1.200023
     28          1           0       -4.470686   -0.648189   -2.031087
     29          6           0       -0.194390    2.783663   -0.040444
     30          1           0        0.886641    2.625605   -0.005501
     31          1           0       -0.431368    3.414652   -0.891864
     32          1           0       -0.492967    3.302380    0.870028
     33          8           0       -3.807331    0.165587    1.081721
 ---------------------------------------------------------------------

 SCF Done:  E(RM06) =  -801.853794099     A.U. after   10 cycles

      1  C    Isotropic =    62.4988   Anisotropy =   133.3761

      2  C    Isotropic =    42.5317   Anisotropy =   167.5104

      3  C    Isotropic =    46.1608   Anisotropy =   190.9005

      4  C    Isotropic =    35.8739   Anisotropy =   181.8935

      5  C    Isotropic =    57.8237   Anisotropy =   157.8060

      6  C    Isotropic =    15.1789   Anisotropy =   151.8442

      7  H    Isotropic =    25.5281   Anisotropy =     5.9738

      8  H    Isotropic =    25.0958   Anisotropy =     7.6115

      9  H    Isotropic =    24.4521   Anisotropy =     8.1408

     10  H    Isotropic =    24.8961   Anisotropy =     5.4866

     11  C    Isotropic =   136.8973   Anisotropy =    30.7297

     12  H    Isotropic =    30.0454   Anisotropy =     4.5332

     13  H    Isotropic =    28.4643   Anisotropy =     6.5026

     14  C    Isotropic =   122.3424   Anisotropy =    29.5192

     15  H    Isotropic =    27.4316   Anisotropy =     4.1653

     16  C    Isotropic =     0.0720   Anisotropy =   139.0272

     17  O    Isotropic =   198.3093   Anisotropy =    61.3230

     18  H    Isotropic =    27.8150   Anisotropy =    12.4978

     19  O    Isotropic =  -110.0449   Anisotropy =   669.3541

     20  N    Isotropic =   104.5644   Anisotropy =   166.0416

     21  H    Isotropic =    26.6829   Anisotropy =     6.7868

     22  N    Isotropic =   142.9965   Anisotropy =   106.7926

     23  H    Isotropic =    26.7376   Anisotropy =     6.0452

     24  C    Isotropic =     3.0325   Anisotropy =   130.2278

     25  C    Isotropic =   155.9928   Anisotropy =    41.4840

     26  H    Isotropic =    29.8523   Anisotropy =     7.4684

     27  H    Isotropic =    29.9233   Anisotropy =     6.4752

     28  H    Isotropic =    30.6153   Anisotropy =     5.4391

     29  C    Isotropic =   150.3405   Anisotropy =    38.3747

     30  H    Isotropic =    30.0991   Anisotropy =     7.3531

     31  H    Isotropic =    30.1124   Anisotropy =     8.9910

     32  H    Isotropic =    29.2823   Anisotropy =    10.2864

     33  O    Isotropic =  -123.3801   Anisotropy =   689.5594

 The electronic state is 1-A.
 Alpha  occ. eigenvalues --  -19.24831 -19.17806 -19.16769 -14.43014 -14.41666
 Alpha  occ. eigenvalues --  -10.34593 -10.33023 -10.30752 -10.29311 -10.26830
 Alpha  occ. eigenvalues --  -10.26350 -10.25094 -10.25066 -10.24844 -10.24573
 Alpha  occ. eigenvalues --  -10.24445 -10.23740  -1.09033  -1.05920  -1.04427
 Alpha  occ. eigenvalues --   -0.95904  -0.93599  -0.87748  -0.81504  -0.77299
 Alpha  occ. eigenvalues --   -0.76637  -0.73958  -0.71844  -0.66889  -0.64056
 Alpha  occ. eigenvalues --   -0.62339  -0.60021  -0.59449  -0.56269  -0.55248
 Alpha  occ. eigenvalues --   -0.52395  -0.50285  -0.49923  -0.48024  -0.47304
 Alpha  occ. eigenvalues --   -0.46853  -0.45526  -0.45187  -0.44206  -0.43846
 Alpha  occ. eigenvalues --   -0.43111  -0.42407  -0.41867  -0.41338  -0.41038
 Alpha  occ. eigenvalues --   -0.39916  -0.39219  -0.37931  -0.37385  -0.35573
 Alpha  occ. eigenvalues --   -0.35262  -0.35039  -0.29971  -0.27867  -0.27191
 Alpha  occ. eigenvalues --   -0.26631  -0.25500  -0.23711
 Alpha virt. eigenvalues --   -0.01141  -0.00520   0.00613   0.01915   0.02054
 Alpha virt. eigenvalues --    0.02929   0.03893   0.04609   0.05416   0.06631
 Alpha virt. eigenvalues --    0.06942   0.07825   0.09022   0.10071   0.10647

 Mulliken charges:
               1
     1  C   -0.272057
     2  C   -0.339425
     3  C    0.236280
     4  C   -0.174805
     5  C   -0.147405
     6  C    0.299645
     7  H    0.131920
     8  H    0.181266
     9  H    0.144568
    10  H    0.119925
    11  C   -0.494998
    12  H    0.216474
    13  H    0.184575
    14  C   -0.045468
    15  H    0.204043
    16  C    0.249029
    17  O   -0.292473
    18  H    0.187269
    19  O   -0.374000
    20  N   -0.237805
    21  H    0.155360
    22  N   -0.123251
    23  H    0.132964
    24  C    0.279078
    25  C   -0.317528
    26  H    0.123373
    27  H    0.119940
    28  H    0.096931
    29  C   -0.212562
    30  H    0.124580
    31  H    0.090507
    32  H    0.133447
    33  O   -0.379398
 Sum of Mulliken charges =   0.00000

 Dipole moment (field-independent basis, Debye):
    X=              0.0142    Y=             -0.3604    Z=             -7.1161  Tot=              7.1252
 Quadrupole moment (field-independent basis, Debye-Ang):
   XX=           -100.7270   YY=            -92.2420   ZZ=           -102.1005
   XY=              8.3428   XZ=              8.8926   YZ=             -8.1392

 Normal termination of Gaussian 09 at Wed Jun 25 07:08:34 2014.
