 Gaussian 09, Revision D.01,
 Gaussian 09:  EM64L-G09RevD.01 24-Apr-2013

 ----------------------------------------------------------------------
 #p nmr=(giao,mixed,spinspin) m06/cc-pvtz scf=tight integral=(grid=ultr
 afine)
 ----------------------------------------------------------------------

 ------------------
 NMR spin-spin scan
 ------------------
 Symbolic Z-matrix:
 Charge =  0 Multiplicity = 1

 SCF Done:  E(RM06) =  -801.911907105     A.U. after   16 cycles
 Normal termination of Gaussian 09 at Wed Jun 25 01:20:41 2014.

 ----------------------------------------------------------------------
 #P Geom=AllCheck Guess=TCheck SCRF=Check GenChk RM06/ChkBas NMR=ReadFC
  IOp(3/6=22)
 ----------------------------------------------------------------------

 Structure from the checkpoint file:  "/home/ztw1e12/tyrosine_scan/tyrosine_chi1_scan/Gau-11679.chk"
 ------------------
 NMR spin-spin scan
 ------------------
 Charge =  0 Multiplicity = 1

                         Standard orientation:
 ---------------------------------------------------------------------
 Center     Atomic      Atomic             Coordinates (Angstroms)
 Number     Number       Type             X           Y           Z
 ---------------------------------------------------------------------
      1          6           0       -3.618335   -1.108515    0.042968
      2          6           0       -2.333436   -1.259545   -0.452255
      3          6           0       -1.532786   -0.160190   -0.726261
      4          6           0       -2.054284    1.107611   -0.486769
      5          6           0       -3.331785    1.275667    0.010319
      6          6           0       -4.117553    0.162338    0.276823
      7          1           0       -4.237564   -1.973213    0.252882
      8          1           0       -1.943152   -2.256096   -0.626567
      9          1           0       -1.445685    1.981399   -0.694922
     10          1           0       -3.736499    2.263007    0.193559
     11          6           0       -0.131102   -0.329302   -1.227189
     12          1           0        0.004740   -1.347727   -1.594158
     13          1           0        0.034781    0.331708   -2.081727
     14          6           0        0.940917   -0.014652   -0.160893
     15          1           0        0.442073    0.264340    0.771828
     16          6           0        1.690144   -1.288325    0.181480
     17          8           0       -5.371618    0.375383    0.766806
     18          1           0       -5.805375   -0.472324    0.916715
     19          8           0        1.076154   -2.204072    0.730184
     20          7           0        1.773491    1.098239   -0.560210
     21          1           0        1.781097    1.377776   -1.529390
     22          7           0        2.973720   -1.377810   -0.159434
     23          1           0        3.427119   -0.576107   -0.566361
     24          6           0        2.493364    1.811968    0.329395
     25          6           0        3.272410    2.960882   -0.219073
     26          1           0        2.976654    3.867364    0.308469
     27          1           0        4.330018    2.794878   -0.014273
     28          1           0        3.132492    3.103833   -1.288158
     29          6           0        3.755035   -2.558690    0.131829
     30          1           0        3.348660   -3.431981   -0.378487
     31          1           0        4.773299   -2.399026   -0.208776
     32          1           0        3.770212   -2.764676    1.202394
     33          8           0        2.510604    1.528482    1.524540
 ---------------------------------------------------------------------

 SCF Done:  E(RM06) =  -801.857584361     A.U. after   10 cycles

      1  C    Isotropic =    60.4839   Anisotropy =   135.3860

      2  C    Isotropic =    40.1134   Anisotropy =   171.0837

      3  C    Isotropic =    40.0932   Anisotropy =   193.3844

      4  C    Isotropic =    42.5305   Anisotropy =   175.0096

      5  C    Isotropic =    57.9447   Anisotropy =   156.7252

      6  C    Isotropic =    15.4999   Anisotropy =   150.3672

      7  H    Isotropic =    25.3491   Anisotropy =     5.9510

      8  H    Isotropic =    24.4453   Anisotropy =     8.3447

      9  H    Isotropic =    24.6020   Anisotropy =     9.2854

     10  H    Isotropic =    24.9047   Anisotropy =     6.2917

     11  C    Isotropic =   134.5090   Anisotropy =    22.4433

     12  H    Isotropic =    29.0106   Anisotropy =     3.6223

     13  H    Isotropic =    29.7781   Anisotropy =     3.8981

     14  C    Isotropic =   119.3808   Anisotropy =    18.6357

     15  H    Isotropic =    27.7295   Anisotropy =     4.1547

     16  C    Isotropic =    -1.7776   Anisotropy =   135.0372

     17  O    Isotropic =   199.4094   Anisotropy =    61.9965

     18  H    Isotropic =    27.7629   Anisotropy =    12.9480

     19  O    Isotropic =   -69.9658   Anisotropy =   631.2587

     20  N    Isotropic =   105.9583   Anisotropy =   156.0940

     21  H    Isotropic =    26.4594   Anisotropy =     6.0245

     22  N    Isotropic =   147.2836   Anisotropy =   100.8764

     23  H    Isotropic =    26.3184   Anisotropy =     8.7442

     24  C    Isotropic =     3.0842   Anisotropy =   131.1073

     25  C    Isotropic =   155.7018   Anisotropy =    41.6973

     26  H    Isotropic =    29.7590   Anisotropy =     7.1085

     27  H    Isotropic =    29.8687   Anisotropy =     6.7718

     28  H    Isotropic =    30.5266   Anisotropy =     5.3873

     29  C    Isotropic =   150.1280   Anisotropy =    39.6509

     30  H    Isotropic =    29.1443   Anisotropy =     9.3716

     31  H    Isotropic =    29.8139   Anisotropy =     8.8550

     32  H    Isotropic =    29.0681   Anisotropy =     9.3710

     33  O    Isotropic =  -115.9158   Anisotropy =   687.7782

 The electronic state is 1-A.
 Alpha  occ. eigenvalues --  -19.24443 -19.18153 -19.16983 -14.43276 -14.42015
 Alpha  occ. eigenvalues --  -10.34949 -10.33384 -10.30303 -10.29232 -10.27151
 Alpha  occ. eigenvalues --  -10.25806 -10.25359 -10.24478 -10.24323 -10.24137
 Alpha  occ. eigenvalues --  -10.23914 -10.23625  -1.08633  -1.06245  -1.04791
 Alpha  occ. eigenvalues --   -0.96086  -0.93947  -0.87343  -0.81401  -0.77308
 Alpha  occ. eigenvalues --   -0.76196  -0.74286  -0.71831  -0.66752  -0.63643
 Alpha  occ. eigenvalues --   -0.61916  -0.60087  -0.59939  -0.55991  -0.55322
 Alpha  occ. eigenvalues --   -0.52046  -0.50882  -0.49489  -0.48762  -0.47274
 Alpha  occ. eigenvalues --   -0.46874  -0.45639  -0.44755  -0.43506  -0.43185
 Alpha  occ. eigenvalues --   -0.42756  -0.42616  -0.42286  -0.41570  -0.41189
 Alpha  occ. eigenvalues --   -0.40206  -0.39261  -0.38002  -0.36736  -0.36100
 Alpha  occ. eigenvalues --   -0.34799  -0.34540  -0.30417  -0.27777  -0.27382
 Alpha  occ. eigenvalues --   -0.26800  -0.26015  -0.23218
 Alpha virt. eigenvalues --   -0.00888   0.00290   0.01122   0.01703   0.02706
 Alpha virt. eigenvalues --    0.03413   0.03541   0.05070   0.05396   0.06632
 Alpha virt. eigenvalues --    0.07107   0.08009   0.09016   0.09734   0.10095

 Mulliken charges:
               1
     1  C   -0.237383
     2  C   -0.180925
     3  C    0.143873
     4  C   -0.211433
     5  C   -0.176861
     6  C    0.287582
     7  H    0.114692
     8  H    0.141031
     9  H    0.150540
    10  H    0.122052
    11  C   -0.439041
    12  H    0.196993
    13  H    0.199658
    14  C   -0.089739
    15  H    0.231340
    16  C    0.270936
    17  O   -0.296018
    18  H    0.188652
    19  O   -0.406457
    20  N   -0.223831
    21  H    0.155792
    22  N   -0.139045
    23  H    0.140746
    24  C    0.261094
    25  C   -0.313019
    26  H    0.124928
    27  H    0.118764
    28  H    0.099155
    29  C   -0.167419
    30  H    0.110862
    31  H    0.084229
    32  H    0.117660
    33  O   -0.379408
 Sum of Mulliken charges =   0.00000

 Dipole moment (field-independent basis, Debye):
    X=              1.8013    Y=              0.9820    Z=             -4.8554  Tot=              5.2711
 Quadrupole moment (field-independent basis, Debye-Ang):
   XX=            -81.3598   YY=            -96.2539   ZZ=           -105.7084
   XY=              8.1460   XZ=            -12.9666   YZ=             -3.4667

 Normal termination of Gaussian 09 at Wed Jun 25 06:03:39 2014.
