 Gaussian 09, Revision D.01,
 Gaussian 09:  EM64L-G09RevD.01 24-Apr-2013

 ----------------------------------------------------------------------
 #p nmr=(giao,mixed,spinspin) m06/cc-pvtz scf=tight integral=(grid=ultr
 afine)
 ----------------------------------------------------------------------

 ------------------
 NMR spin-spin scan
 ------------------
 Symbolic Z-matrix:
 Charge =  0 Multiplicity = 1

 SCF Done:  E(RM06) =  -801.920294602     A.U. after   16 cycles
 Normal termination of Gaussian 09 at Wed Jun 25 03:05:39 2014.

 ----------------------------------------------------------------------
 #P Geom=AllCheck Guess=TCheck SCRF=Check GenChk RM06/ChkBas NMR=ReadFC
  IOp(3/6=22)
 ----------------------------------------------------------------------

 Structure from the checkpoint file:  "/home/ztw1e12/tyrosine_scan/tyrosine_chi1_scan/Gau-27860.chk"
 ------------------
 NMR spin-spin scan
 ------------------
 Charge =  0 Multiplicity = 1

                         Standard orientation:
 ---------------------------------------------------------------------
 Center     Atomic      Atomic             Coordinates (Angstroms)
 Number     Number       Type             X           Y           Z
 ---------------------------------------------------------------------
      1          6           0       -3.461799    0.102796    1.027084
      2          6           0       -2.203814   -0.310548    1.429732
      3          6           0       -1.328735   -0.924260    0.543187
      4          6           0       -1.751271   -1.110232   -0.770024
      5          6           0       -3.002686   -0.700299   -1.190243
      6          6           0       -3.861410   -0.091745   -0.286456
      7          1           0       -4.142391    0.575521    1.726134
      8          1           0       -1.896601   -0.157343    2.458155
      9          1           0       -1.077328   -1.586212   -1.476115
     10          1           0       -3.328658   -0.849386   -2.211731
     11          6           0        0.041234   -1.358260    0.964460
     12          1           0        0.042553   -1.567178    2.034347
     13          1           0        0.282090   -2.293140    0.457143
     14          6           0        1.184270   -0.365871    0.679970
     15          1           0        1.551179    0.044994    1.621126
     16          6           0        2.362535   -1.043261   -0.025809
     17          8           0       -5.088110    0.293499   -0.736885
     18          1           0       -5.581205    0.695416   -0.012716
     19          8           0        2.235649   -2.057475   -0.706545
     20          7           0        0.776336    0.775843   -0.124442
     21          1           0       -0.006798    0.666042   -0.752127
     22          7           0        3.532127   -0.415817    0.126117
     23          1           0        3.526493    0.475233    0.605057
     24          6           0        1.319705    1.997468    0.017694
     25          6           0        0.715572    3.086459   -0.804994
     26          1           0        0.290878    3.832786   -0.133190
     27          1           0        1.502524    3.574760   -1.378524
     28          1           0       -0.060107    2.734611   -1.481791
     29          6           0        4.718588   -0.851335   -0.574028
     30          1           0        4.577709   -0.820277   -1.655581
     31          1           0        5.544224   -0.197318   -0.310678
     32          1           0        4.980585   -1.871863   -0.295502
     33          8           0        2.257771    2.218689    0.784784
 ---------------------------------------------------------------------

 SCF Done:  E(RM06) =  -801.865918698     A.U. after   10 cycles

      1  C    Isotropic =    59.3458   Anisotropy =   137.2375

      2  C    Isotropic =    39.6674   Anisotropy =   171.8641

      3  C    Isotropic =    43.9823   Anisotropy =   195.3959

      4  C    Isotropic =    39.9231   Anisotropy =   178.7315

      5  C    Isotropic =    58.0657   Anisotropy =   157.3389

      6  C    Isotropic =    15.6186   Anisotropy =   151.0088

      7  H    Isotropic =    25.3005   Anisotropy =     5.7194

      8  H    Isotropic =    24.6990   Anisotropy =     8.1819

      9  H    Isotropic =    24.3539   Anisotropy =     8.9285

     10  H    Isotropic =    24.7702   Anisotropy =     5.9877

     11  C    Isotropic =   148.3112   Anisotropy =    29.2930

     12  H    Isotropic =    29.3227   Anisotropy =     7.8968

     13  H    Isotropic =    27.8197   Anisotropy =     6.8466

     14  C    Isotropic =   130.5963   Anisotropy =    28.9494

     15  H    Isotropic =    27.4086   Anisotropy =     4.7341

     16  C    Isotropic =    -0.9881   Anisotropy =   125.7261

     17  O    Isotropic =   198.6386   Anisotropy =    61.6959

     18  H    Isotropic =    27.7279   Anisotropy =    12.9383

     19  O    Isotropic =   -76.0572   Anisotropy =   638.6738

     20  N    Isotropic =   106.8733   Anisotropy =   119.3707

     21  H    Isotropic =    26.7508   Anisotropy =    10.5894

     22  N    Isotropic =   135.0037   Anisotropy =   109.1074

     23  H    Isotropic =    24.9227   Anisotropy =     8.9883

     24  C    Isotropic =     1.5961   Anisotropy =   134.9037

     25  C    Isotropic =   155.8653   Anisotropy =    41.1580

     26  H    Isotropic =    30.2540   Anisotropy =     6.6062

     27  H    Isotropic =    30.1687   Anisotropy =     7.6367

     28  H    Isotropic =    31.1083   Anisotropy =     4.3695

     29  C    Isotropic =   150.1978   Anisotropy =    38.8020

     30  H    Isotropic =    29.2745   Anisotropy =     8.9970

     31  H    Isotropic =    29.7249   Anisotropy =     8.8047

     32  H    Isotropic =    29.0914   Anisotropy =     9.3764

     33  O    Isotropic =   -66.5438   Anisotropy =   606.3802

 The electronic state is 1-A.
 Alpha  occ. eigenvalues --  -19.25386 -19.18409 -19.17609 -14.42650 -14.40956
 Alpha  occ. eigenvalues --  -10.34939 -10.33312 -10.31333 -10.29358 -10.26544
 Alpha  occ. eigenvalues --  -10.25333 -10.25251 -10.25098 -10.25064 -10.24828
 Alpha  occ. eigenvalues --  -10.24639 -10.24622  -1.09624  -1.06366  -1.05098
 Alpha  occ. eigenvalues --   -0.95465  -0.93508  -0.88194  -0.81223  -0.77411
 Alpha  occ. eigenvalues --   -0.77240  -0.74343  -0.71692  -0.66425  -0.64431
 Alpha  occ. eigenvalues --   -0.61524  -0.60467  -0.58683  -0.56815  -0.54924
 Alpha  occ. eigenvalues --   -0.51795  -0.50896  -0.50397  -0.48349  -0.47206
 Alpha  occ. eigenvalues --   -0.46508  -0.46007  -0.45372  -0.44370  -0.43991
 Alpha  occ. eigenvalues --   -0.43398  -0.42464  -0.42328  -0.41670  -0.40796
 Alpha  occ. eigenvalues --   -0.39892  -0.39199  -0.38017  -0.37034  -0.36536
 Alpha  occ. eigenvalues --   -0.35575  -0.35097  -0.30095  -0.28231  -0.27866
 Alpha  occ. eigenvalues --   -0.27186  -0.26075  -0.24305
 Alpha virt. eigenvalues --   -0.02034  -0.00006   0.01259   0.01806   0.02808
 Alpha virt. eigenvalues --    0.03821   0.04064   0.05044   0.05826   0.07005
 Alpha virt. eigenvalues --    0.07950   0.08406   0.09586   0.10394   0.10826

 Mulliken charges:
               1
     1  C   -0.231252
     2  C   -0.215006
     3  C    0.130089
     4  C   -0.276681
     5  C   -0.174640
     6  C    0.291200
     7  H    0.117852
     8  H    0.150619
     9  H    0.193564
    10  H    0.130821
    11  C   -0.440112
    12  H    0.172941
    13  H    0.231813
    14  C   -0.112135
    15  H    0.202849
    16  C    0.301831
    17  O   -0.292651
    18  H    0.189009
    19  O   -0.396642
    20  N   -0.199459
    21  H    0.193236
    22  N   -0.185178
    23  H    0.175446
    24  C    0.315277
    25  C   -0.309707
    26  H    0.116643
    27  H    0.114929
    28  H    0.101941
    29  C   -0.175992
    30  H    0.105405
    31  H    0.091134
    32  H    0.113810
    33  O   -0.430952
 Sum of Mulliken charges =   0.00000

 Dipole moment (field-independent basis, Debye):
    X=             -2.1422    Y=              2.2287    Z=              0.7678  Tot=              3.1852
 Quadrupole moment (field-independent basis, Debye-Ang):
   XX=            -89.4061   YY=           -107.9961   ZZ=            -97.5256
   XY=             -5.1288   XZ=             -7.4400   YZ=             -6.0408

 Normal termination of Gaussian 09 at Wed Jun 25 08:05:48 2014.
