 Gaussian 09, Revision D.01,
 Gaussian 09:  EM64L-G09RevD.01 24-Apr-2013

 ----------------------------------------------------------------------
 #p nmr=(giao,mixed,spinspin) m06/cc-pvtz scf=tight integral=(grid=ultr
 afine)
 ----------------------------------------------------------------------

 ------------------
 NMR spin-spin scan
 ------------------
 Symbolic Z-matrix:
 Charge =  0 Multiplicity = 1

 SCF Done:  E(RM06) =  -801.914745676     A.U. after   16 cycles
 Normal termination of Gaussian 09 at Wed Jun 25 04:08:46 2014.

 ----------------------------------------------------------------------
 #P Geom=AllCheck Guess=TCheck SCRF=Check GenChk RM06/ChkBas NMR=ReadFC
  IOp(3/6=22)
 ----------------------------------------------------------------------

 Structure from the checkpoint file:  "/home/ztw1e12/tyrosine_scan/tyrosine_chi1_scan/Gau-7588.chk"
 ------------------
 NMR spin-spin scan
 ------------------
 Charge =  0 Multiplicity = 1

                         Standard orientation:
 ---------------------------------------------------------------------
 Center     Atomic      Atomic             Coordinates (Angstroms)
 Number     Number       Type             X           Y           Z
 ---------------------------------------------------------------------
      1          6           0       -3.374127   -0.991779    0.802916
      2          6           0       -2.071373   -1.207098    0.394930
      3          6           0       -1.500644   -0.448848   -0.620946
      4          6           0       -2.272120    0.540918   -1.215075
      5          6           0       -3.578658    0.769522   -0.819052
      6          6           0       -4.130559   -0.000501    0.191693
      7          1           0       -3.816424   -1.587626    1.593156
      8          1           0       -1.479651   -1.980310    0.874702
      9          1           0       -1.841203    1.142768   -2.007780
     10          1           0       -4.179870    1.539077   -1.286360
     11          6           0       -0.079326   -0.680403   -1.033733
     12          1           0        0.077881   -1.753910   -1.162981
     13          1           0        0.126732   -0.217008   -2.001053
     14          6           0        0.939506   -0.169555   -0.002074
     15          1           0        0.466338   -0.102781    0.981300
     16          6           0        2.039573   -1.205209    0.159186
     17          8           0       -5.421198    0.250493    0.551370
     18          1           0       -5.680910   -0.359842    1.250483
     19          8           0        1.801758   -2.240707    0.781163
     20          7           0        1.425346    1.136700   -0.389119
     21          1           0        1.154387    1.507150   -1.287864
     22          7           0        3.207269   -0.968650   -0.435433
     23          1           0        3.342860   -0.085707   -0.901292
     24          6           0        2.061468    1.946013    0.483320
     25          6           0        2.415002    3.308529   -0.012584
     26          1           0        1.870176    4.045904    0.577373
     27          1           0        3.478066    3.479409    0.152747
     28          1           0        2.184661    3.454241   -1.065770
     29          6           0        4.286393   -1.928741   -0.396002
     30          1           0        3.971231   -2.885024   -0.813273
     31          1           0        5.117482   -1.548061   -0.981513
     32          1           0        4.628020   -2.098569    0.625556
     33          8           0        2.337080    1.574822    1.621087
 ---------------------------------------------------------------------

 SCF Done:  E(RM06) =  -801.860423250     A.U. after   10 cycles

      1  C    Isotropic =    58.3253   Anisotropy =   139.0242

      2  C    Isotropic =    40.6371   Anisotropy =   182.9049

      3  C    Isotropic =    40.8326   Anisotropy =   193.6580

      4  C    Isotropic =    42.0313   Anisotropy =   161.9517

      5  C    Isotropic =    59.8997   Anisotropy =   153.3066

      6  C    Isotropic =    15.4051   Anisotropy =   150.5990

      7  H    Isotropic =    25.1803   Anisotropy =     6.2606

      8  H    Isotropic =    24.0774   Anisotropy =     9.2181

      9  H    Isotropic =    24.7757   Anisotropy =     8.2395

     10  H    Isotropic =    25.0257   Anisotropy =     5.9706

     11  C    Isotropic =   134.3399   Anisotropy =    19.9852

     12  H    Isotropic =    28.5168   Anisotropy =     3.9074

     13  H    Isotropic =    30.2465   Anisotropy =     4.3156

     14  C    Isotropic =   116.5299   Anisotropy =    22.5531

     15  H    Isotropic =    27.9149   Anisotropy =     3.9819

     16  C    Isotropic =    -2.2202   Anisotropy =   136.5964

     17  O    Isotropic =   199.2128   Anisotropy =    62.6189

     18  H    Isotropic =    27.7590   Anisotropy =    13.0073

     19  O    Isotropic =   -71.8161   Anisotropy =   626.0143

     20  N    Isotropic =   108.9248   Anisotropy =   159.6713

     21  H    Isotropic =    26.5338   Anisotropy =     5.8193

     22  N    Isotropic =   147.0890   Anisotropy =   103.1770

     23  H    Isotropic =    26.1439   Anisotropy =     8.7414

     24  C    Isotropic =     2.2273   Anisotropy =   131.9692

     25  C    Isotropic =   156.0981   Anisotropy =    41.4800

     26  H    Isotropic =    29.9000   Anisotropy =     6.8465

     27  H    Isotropic =    29.9606   Anisotropy =     7.1265

     28  H    Isotropic =    30.5929   Anisotropy =     5.3533

     29  C    Isotropic =   150.1002   Anisotropy =    39.7082

     30  H    Isotropic =    29.0700   Anisotropy =     9.0894

     31  H    Isotropic =    29.8066   Anisotropy =     8.8761

     32  H    Isotropic =    29.0773   Anisotropy =     9.6479

     33  O    Isotropic =  -121.1936   Anisotropy =   690.0361

 The electronic state is 1-A.
 Alpha  occ. eigenvalues --  -19.24807 -19.18124 -19.17047 -14.43171 -14.41934
 Alpha  occ. eigenvalues --  -10.34854 -10.33324 -10.30725 -10.29281 -10.27093
 Alpha  occ. eigenvalues --  -10.25911 -10.25241 -10.24914 -10.24812 -10.24553
 Alpha  occ. eigenvalues --  -10.24455 -10.23992  -1.09021  -1.06212  -1.04778
 Alpha  occ. eigenvalues --   -0.96067  -0.93864  -0.87785  -0.81631  -0.77383
 Alpha  occ. eigenvalues --   -0.76671  -0.74380  -0.71906  -0.66761  -0.64219
 Alpha  occ. eigenvalues --   -0.61765  -0.60409  -0.59820  -0.56308  -0.55129
 Alpha  occ. eigenvalues --   -0.52453  -0.51099  -0.49621  -0.48762  -0.47168
 Alpha  occ. eigenvalues --   -0.46724  -0.45830  -0.45253  -0.43831  -0.43344
 Alpha  occ. eigenvalues --   -0.43207  -0.42626  -0.42209  -0.41455  -0.41283
 Alpha  occ. eigenvalues --   -0.40347  -0.39664  -0.38493  -0.36701  -0.36219
 Alpha  occ. eigenvalues --   -0.35083  -0.35001  -0.30321  -0.27722  -0.27422
 Alpha  occ. eigenvalues --   -0.27259  -0.26003  -0.23711
 Alpha virt. eigenvalues --   -0.01457   0.00216   0.00826   0.01740   0.02421
 Alpha virt. eigenvalues --    0.02962   0.03748   0.04781   0.06009   0.06886
 Alpha virt. eigenvalues --    0.07103   0.07857   0.09086   0.09948   0.10201

 Mulliken charges:
               1
     1  C   -0.239867
     2  C   -0.226108
     3  C    0.174331
     4  C   -0.224438
     5  C   -0.175357
     6  C    0.289276
     7  H    0.117271
     8  H    0.168828
     9  H    0.145209
    10  H    0.123389
    11  C   -0.462406
    12  H    0.222014
    13  H    0.193216
    14  C   -0.103350
    15  H    0.240238
    16  C    0.273148
    17  O   -0.295274
    18  H    0.189082
    19  O   -0.405260
    20  N   -0.226156
    21  H    0.159370
    22  N   -0.142064
    23  H    0.141410
    24  C    0.271250
    25  C   -0.313541
    26  H    0.124465
    27  H    0.118773
    28  H    0.097155
    29  C   -0.168281
    30  H    0.112243
    31  H    0.084064
    32  H    0.116220
    33  O   -0.378849
 Sum of Mulliken charges =   0.00000

 Dipole moment (field-independent basis, Debye):
    X=              0.3064    Y=              2.0897    Z=             -4.2274  Tot=              4.7256
 Quadrupole moment (field-independent basis, Debye-Ang):
   XX=            -89.0231   YY=            -99.7494   ZZ=           -101.5922
   XY=              8.0395   XZ=            -19.2253   YZ=             -5.3251

 Normal termination of Gaussian 09 at Wed Jun 25 08:57:16 2014.
