 Gaussian 09, Revision D.01,
 Gaussian 09:  EM64L-G09RevD.01 24-Apr-2013

 ----------------------------------------------------------------------
 #p nmr=(giao,mixed,spinspin) m06/cc-pvtz scf=tight integral=(grid=ultr
 afine)
 ----------------------------------------------------------------------

 ------------------
 NMR spin-spin scan
 ------------------
 Symbolic Z-matrix:
 Charge =  0 Multiplicity = 1

 SCF Done:  E(RM06) =  -801.912812866     A.U. after   15 cycles
 Normal termination of Gaussian 09 at Wed Jun 25 00:59:13 2014.

 ----------------------------------------------------------------------
 #P Geom=AllCheck Guess=TCheck SCRF=Check GenChk RM06/ChkBas NMR=ReadFC
  IOp(3/6=22)
 ----------------------------------------------------------------------

 Structure from the checkpoint file:  "/home/ztw1e12/tyrosine_scan/tyrosine_chi1_scan/Gau-19538.chk"
 ------------------
 NMR spin-spin scan
 ------------------
 Charge =  0 Multiplicity = 1

                         Standard orientation:
 ---------------------------------------------------------------------
 Center     Atomic      Atomic             Coordinates (Angstroms)
 Number     Number       Type             X           Y           Z
 ---------------------------------------------------------------------
      1          6           0       -3.599732    0.852461    0.380472
      2          6           0       -2.298457    0.848928    0.855014
      3          6           0       -1.482319   -0.264517    0.714609
      4          6           0       -2.005928   -1.385085    0.077430
      5          6           0       -3.300357   -1.398497   -0.403057
      6          6           0       -4.101250   -0.274608   -0.250003
      7          1           0       -4.230293    1.726528    0.495669
      8          1           0       -1.908202    1.733381    1.346300
      9          1           0       -1.385238   -2.267151   -0.040149
     10          1           0       -3.706887   -2.273352   -0.894365
     11          6           0       -0.077268   -0.273074    1.233540
     12          1           0        0.087115    0.569541    1.909577
     13          1           0        0.072248   -1.183457    1.821530
     14          6           0        0.996702   -0.272435    0.133020
     15          1           0        0.598644   -0.771877   -0.754696
     16          6           0        1.265345    1.158633   -0.289332
     17          8           0       -5.373771   -0.333541   -0.734699
     18          1           0       -5.822722    0.501231   -0.559008
     19          8           0        0.447833    1.741037   -1.001594
     20          7           0        2.164342   -1.001175    0.574259
     21          1           0        2.240827   -1.257328    1.547023
     22          7           0        2.354603    1.755017    0.196910
     23          1           0        3.014520    1.210043    0.727856
     24          6           0        3.117771   -1.403499   -0.288958
     25          6           0        4.249539   -2.186852    0.287983
     26          1           0        4.322719   -3.137345   -0.239718
     27          1           0        5.177419   -1.643613    0.109205
     28          1           0        4.143747   -2.373003    1.354464
     29          6           0        2.654746    3.136405   -0.102213
     30          1           0        1.841424    3.787788    0.217133
     31          1           0        3.558969    3.423131    0.425884
     32          1           0        2.811896    3.287138   -1.170957
     33          8           0        3.055743   -1.136960   -1.486828
 ---------------------------------------------------------------------

 SCF Done:  E(RM06) =  -801.858476952     A.U. after   10 cycles

      1  C    Isotropic =    61.0427   Anisotropy =   134.6382

      2  C    Isotropic =    38.9506   Anisotropy =   170.4782

      3  C    Isotropic =    43.5081   Anisotropy =   188.6078

      4  C    Isotropic =    41.2577   Anisotropy =   179.3326

      5  C    Isotropic =    58.2035   Anisotropy =   156.7428

      6  C    Isotropic =    15.4845   Anisotropy =   150.2627

      7  H    Isotropic =    25.4287   Anisotropy =     5.9763

      8  H    Isotropic =    24.8002   Anisotropy =     8.3694

      9  H    Isotropic =    24.5298   Anisotropy =     9.4011

     10  H    Isotropic =    24.8568   Anisotropy =     6.0725

     11  C    Isotropic =   135.6466   Anisotropy =    27.9338

     12  H    Isotropic =    29.4954   Anisotropy =     3.7142

     13  H    Isotropic =    29.4483   Anisotropy =     4.6029

     14  C    Isotropic =   119.0258   Anisotropy =    16.3983

     15  H    Isotropic =    27.7343   Anisotropy =     4.5540

     16  C    Isotropic =    -0.0847   Anisotropy =   133.7514

     17  O    Isotropic =   199.1633   Anisotropy =    61.5992

     18  H    Isotropic =    27.7734   Anisotropy =    12.8449

     19  O    Isotropic =   -94.3840   Anisotropy =   661.4382

     20  N    Isotropic =   108.7494   Anisotropy =   154.1936

     21  H    Isotropic =    26.4561   Anisotropy =     6.4611

     22  N    Isotropic =   152.2439   Anisotropy =   102.7635

     23  H    Isotropic =    26.4347   Anisotropy =     8.0258

     24  C    Isotropic =     3.3535   Anisotropy =   130.4912

     25  C    Isotropic =   155.9747   Anisotropy =    41.5402

     26  H    Isotropic =    29.8019   Anisotropy =     7.2405

     27  H    Isotropic =    29.8883   Anisotropy =     6.6723

     28  H    Isotropic =    30.5743   Anisotropy =     5.5281

     29  C    Isotropic =   150.2590   Anisotropy =    39.2543

     30  H    Isotropic =    29.1022   Anisotropy =     9.0370

     31  H    Isotropic =    29.8359   Anisotropy =     8.9685

     32  H    Isotropic =    29.1654   Anisotropy =     9.7220

     33  O    Isotropic =  -117.5689   Anisotropy =   689.4594

 The electronic state is 1-A.
 Alpha  occ. eigenvalues --  -19.24281 -19.18065 -19.16872 -14.43165 -14.41840
 Alpha  occ. eigenvalues --  -10.34859 -10.33262 -10.30128 -10.29226 -10.27045
 Alpha  occ. eigenvalues --  -10.26097 -10.25286 -10.24412 -10.24136 -10.24110
 Alpha  occ. eigenvalues --  -10.23745 -10.23404  -1.08472  -1.06165  -1.04617
 Alpha  occ. eigenvalues --   -0.96044  -0.93779  -0.87212  -0.81514  -0.77231
 Alpha  occ. eigenvalues --   -0.76041  -0.74164  -0.71725  -0.66718  -0.63493
 Alpha  occ. eigenvalues --   -0.62053  -0.59893  -0.59663  -0.55879  -0.55254
 Alpha  occ. eigenvalues --   -0.52210  -0.50653  -0.49483  -0.48413  -0.47219
 Alpha  occ. eigenvalues --   -0.46866  -0.45621  -0.44703  -0.43790  -0.43133
 Alpha  occ. eigenvalues --   -0.42696  -0.42290  -0.42201  -0.41412  -0.40979
 Alpha  occ. eigenvalues --   -0.40007  -0.39159  -0.38013  -0.36908  -0.36134
 Alpha  occ. eigenvalues --   -0.34688  -0.34485  -0.30155  -0.27610  -0.27378
 Alpha  occ. eigenvalues --   -0.26535  -0.25921  -0.22957
 Alpha virt. eigenvalues --   -0.00620   0.00391   0.01355   0.01722   0.02793
 Alpha virt. eigenvalues --    0.03295   0.03661   0.04669   0.05594   0.06320
 Alpha virt. eigenvalues --    0.07014   0.07847   0.09087   0.09560   0.10314

 Mulliken charges:
               1
     1  C   -0.235406
     2  C   -0.194550
     3  C    0.172864
     4  C   -0.218974
     5  C   -0.172526
     6  C    0.286924
     7  H    0.111121
     8  H    0.138529
     9  H    0.150417
    10  H    0.121196
    11  C   -0.460830
    12  H    0.201880
    13  H    0.200225
    14  C   -0.086936
    15  H    0.232857
    16  C    0.275840
    17  O   -0.296309
    18  H    0.188236
    19  O   -0.390180
    20  N   -0.225921
    21  H    0.154462
    22  N   -0.148083
    23  H    0.138960
    24  C    0.266374
    25  C   -0.313812
    26  H    0.124141
    27  H    0.118995
    28  H    0.098360
    29  C   -0.173182
    30  H    0.113191
    31  H    0.084039
    32  H    0.117115
    33  O   -0.379016
 Sum of Mulliken charges =   0.00000

 Dipole moment (field-independent basis, Debye):
    X=              2.0524    Y=             -0.0155    Z=              5.8242  Tot=              6.1752
 Quadrupole moment (field-independent basis, Debye-Ang):
   XX=            -83.6610   YY=            -92.2272   ZZ=           -106.5582
   XY=             -6.1036   XZ=             11.2184   YZ=              0.4348

 Normal termination of Gaussian 09 at Wed Jun 25 05:47:06 2014.
