 Gaussian 09, Revision D.01,
 Gaussian 09:  EM64L-G09RevD.01 24-Apr-2013

 ----------------------------------------------------------------------
 #p nmr=(giao,mixed,spinspin) m06/cc-pvtz scf=tight integral=(grid=ultr
 afine)
 ----------------------------------------------------------------------

 ------------------
 NMR spin-spin scan
 ------------------
 Symbolic Z-matrix:
 Charge =  0 Multiplicity = 1

 SCF Done:  E(RM06) =  -801.915629331     A.U. after   16 cycles
 Normal termination of Gaussian 09 at Wed Jun 25 02:03:12 2014.

 ----------------------------------------------------------------------
 #P Geom=AllCheck Guess=TCheck SCRF=Check GenChk RM06/ChkBas NMR=ReadFC
  IOp(3/6=22)
 ----------------------------------------------------------------------

 Structure from the checkpoint file:  "/home/ztw1e12/tyrosine_scan/tyrosine_chi1_scan/Gau-15389.chk"
 ------------------
 NMR spin-spin scan
 ------------------
 Charge =  0 Multiplicity = 1

                         Standard orientation:
 ---------------------------------------------------------------------
 Center     Atomic      Atomic             Coordinates (Angstroms)
 Number     Number       Type             X           Y           Z
 ---------------------------------------------------------------------
      1          6           0        2.523861   -1.487248   -0.666602
      2          6           0        1.354988   -1.549196    0.070490
      3          6           0        1.075462   -0.619364    1.066578
      4          6           0        2.017620    0.371909    1.317339
      5          6           0        3.192878    0.446784    0.591839
      6          6           0        3.444150   -0.482190   -0.406730
      7          1           0        2.734593   -2.216407   -1.440583
      8          1           0        0.639104   -2.338508   -0.135017
      9          1           0        1.824742    1.103236    2.094039
     10          1           0        3.925232    1.218613    0.791795
     11          6           0       -0.235724   -0.649426    1.793520
     12          1           0       -0.543358   -1.674580    2.007463
     13          1           0       -0.119664   -0.145114    2.753830
     14          6           0       -1.391978    0.048098    1.048264
     15          1           0       -2.086931    0.440577    1.795180
     16          6           0       -0.883182    1.272424    0.313757
     17          8           0        4.612945   -0.371594   -1.097485
     18          1           0        4.661636   -1.072927   -1.756847
     19          8           0       -0.624230    2.288841    0.957310
     20          7           0       -2.115751   -0.901004    0.230813
     21          1           0       -1.719211   -1.817246    0.084964
     22          7           0       -0.695810    1.178573   -1.002384
     23          1           0       -0.860252    0.289120   -1.447247
     24          6           0       -3.330719   -0.621349   -0.279380
     25          6           0       -3.989332   -1.706720   -1.064602
     26          1           0       -4.954944   -1.929084   -0.610829
     27          1           0       -4.180129   -1.340887   -2.073301
     28          1           0       -3.398786   -2.618844   -1.119586
     29          6           0       -0.042835    2.232728   -1.744440
     30          1           0        0.987698    2.369087   -1.408186
     31          1           0       -0.038536    1.973827   -2.798846
     32          1           0       -0.571121    3.177282   -1.619245
     33          8           0       -3.867502    0.470273   -0.104423
 ---------------------------------------------------------------------

 SCF Done:  E(RM06) =  -801.861325965     A.U. after   10 cycles

      1  C    Isotropic =    61.7538   Anisotropy =   134.3948

      2  C    Isotropic =    43.3984   Anisotropy =   166.1137

      3  C    Isotropic =    44.2175   Anisotropy =   194.7687

      4  C    Isotropic =    36.4868   Anisotropy =   182.6721

      5  C    Isotropic =    57.5797   Anisotropy =   158.6385

      6  C    Isotropic =    15.2136   Anisotropy =   152.1368

      7  H    Isotropic =    25.4348   Anisotropy =     5.8976

      8  H    Isotropic =    24.8829   Anisotropy =     8.2612

      9  H    Isotropic =    24.4309   Anisotropy =     7.7017

     10  H    Isotropic =    24.8645   Anisotropy =     5.6588

     11  C    Isotropic =   138.6228   Anisotropy =    13.5165

     12  H    Isotropic =    29.7230   Anisotropy =     5.4817

     13  H    Isotropic =    28.4939   Anisotropy =     7.0193

     14  C    Isotropic =   121.4614   Anisotropy =    29.5927

     15  H    Isotropic =    27.4930   Anisotropy =     4.6335

     16  C    Isotropic =     1.0391   Anisotropy =   137.4214

     17  O    Isotropic =   198.3378   Anisotropy =    61.0222

     18  H    Isotropic =    27.7965   Anisotropy =    12.7554

     19  O    Isotropic =   -90.1756   Anisotropy =   652.0896

     20  N    Isotropic =   110.2348   Anisotropy =   150.4848

     21  H    Isotropic =    26.3020   Anisotropy =     7.2486

     22  N    Isotropic =   141.3478   Anisotropy =    99.7468

     23  H    Isotropic =    27.2678   Anisotropy =     5.0486

     24  C    Isotropic =     3.1916   Anisotropy =   129.8346

     25  C    Isotropic =   155.9261   Anisotropy =    41.4338

     26  H    Isotropic =    29.8415   Anisotropy =     7.4855

     27  H    Isotropic =    29.9336   Anisotropy =     6.4643

     28  H    Isotropic =    30.5776   Anisotropy =     5.3308

     29  C    Isotropic =   150.7005   Anisotropy =    38.6010

     30  H    Isotropic =    30.1887   Anisotropy =     7.1666

     31  H    Isotropic =    30.3894   Anisotropy =     8.8539

     32  H    Isotropic =    29.2714   Anisotropy =    10.3029

     33  O    Isotropic =  -117.7919   Anisotropy =   690.5462

 The electronic state is 1-A.
 Alpha  occ. eigenvalues --  -19.25407 -19.17849 -19.16754 -14.43009 -14.41432
 Alpha  occ. eigenvalues --  -10.34656 -10.33079 -10.31345 -10.29224 -10.26610
 Alpha  occ. eigenvalues --  -10.26062 -10.25702 -10.25345 -10.25216 -10.25139
 Alpha  occ. eigenvalues --  -10.24882 -10.24388  -1.09642  -1.05940  -1.04460
 Alpha  occ. eigenvalues --   -0.95832  -0.93473  -0.88283  -0.81740  -0.77427
 Alpha  occ. eigenvalues --   -0.77246  -0.74175  -0.71906  -0.66836  -0.64585
 Alpha  occ. eigenvalues --   -0.62220  -0.60585  -0.59233  -0.56820  -0.55215
 Alpha  occ. eigenvalues --   -0.52644  -0.50644  -0.49721  -0.48662  -0.47158
 Alpha  occ. eigenvalues --   -0.47000  -0.46069  -0.44609  -0.44437  -0.44234
 Alpha  occ. eigenvalues --   -0.43628  -0.42766  -0.41897  -0.41310  -0.41298
 Alpha  occ. eigenvalues --   -0.39919  -0.39178  -0.38373  -0.37691  -0.35828
 Alpha  occ. eigenvalues --   -0.35615  -0.35227  -0.29908  -0.28102  -0.27327
 Alpha  occ. eigenvalues --   -0.26848  -0.25658  -0.24318
 Alpha virt. eigenvalues --   -0.01912  -0.00344   0.00339   0.01702   0.01957
 Alpha virt. eigenvalues --    0.03105   0.03807   0.04828   0.05820   0.06486
 Alpha virt. eigenvalues --    0.06797   0.08187   0.09019   0.09894   0.10467

 Mulliken charges:
               1
     1  C   -0.250068
     2  C   -0.303845
     3  C    0.178696
     4  C   -0.193794
     5  C   -0.184832
     6  C    0.298931
     7  H    0.118366
     8  H    0.177910
     9  H    0.169363
    10  H    0.133267
    11  C   -0.419696
    12  H    0.195468
    13  H    0.182293
    14  C   -0.057991
    15  H    0.196866
    16  C    0.243307
    17  O   -0.290372
    18  H    0.187653
    19  O   -0.391329
    20  N   -0.246085
    21  H    0.170396
    22  N   -0.108658
    23  H    0.137014
    24  C    0.273305
    25  C   -0.318149
    26  H    0.123274
    27  H    0.119104
    28  H    0.096790
    29  C   -0.198684
    30  H    0.124256
    31  H    0.088092
    32  H    0.129008
    33  O   -0.379858
 Sum of Mulliken charges =   0.00000

 Dipole moment (field-independent basis, Debye):
    X=              1.9118    Y=             -6.1568    Z=             -3.2149  Tot=              7.2040
 Quadrupole moment (field-independent basis, Debye-Ang):
   XX=           -109.7914   YY=           -100.4228   ZZ=            -91.8004
   XY=              9.4135   XZ=             -1.9686   YZ=             -0.0730

 Normal termination of Gaussian 09 at Wed Jun 25 07:30:07 2014.
