 Gaussian 09, Revision D.01,
 Gaussian 09:  EM64L-G09RevD.01 24-Apr-2013

 ----------------------------------------------------------------------
 #p nmr=(giao,mixed,spinspin) m06/cc-pvtz scf=tight integral=(grid=ultr
 afine)
 ----------------------------------------------------------------------

 ------------------
 NMR spin-spin scan
 ------------------
 Symbolic Z-matrix:
 Charge =  0 Multiplicity = 1

 SCF Done:  E(RM06) =  -801.912832561     A.U. after   16 cycles
 Normal termination of Gaussian 09 at Wed Jun 25 01:37:32 2014.

 ----------------------------------------------------------------------
 #P Geom=AllCheck Guess=TCheck SCRF=Check GenChk RM06/ChkBas NMR=ReadFC
  IOp(3/6=22)
 ----------------------------------------------------------------------

 Structure from the checkpoint file:  "/home/ztw1e12/tyrosine_scan/tyrosine_chi1_scan/Gau-15561.chk"
 ------------------
 NMR spin-spin scan
 ------------------
 Charge =  0 Multiplicity = 1

                         Standard orientation:
 ---------------------------------------------------------------------
 Center     Atomic      Atomic             Coordinates (Angstroms)
 Number     Number       Type             X           Y           Z
 ---------------------------------------------------------------------
      1          6           0        3.134899    0.498408   -0.928577
      2          6           0        1.856652    0.085940   -1.266593
      3          6           0        1.232313   -0.950547   -0.586944
      4          6           0        1.931622   -1.577457    0.439688
      5          6           0        3.206962   -1.179717    0.789240
      6          6           0        3.808883   -0.132690    0.104658
      7          1           0        3.617173    1.307451   -1.465246
      8          1           0        1.336583    0.585339   -2.076523
      9          1           0        1.458628   -2.389087    0.982326
     10          1           0        3.748017   -1.668555    1.589381
     11          6           0       -0.183440   -1.335003   -0.884287
     12          1           0       -0.448518   -0.971749   -1.882787
     13          1           0       -0.308046   -2.419722   -0.888358
     14          6           0       -1.196967   -0.747240    0.109522
     15          1           0       -1.175163   -1.315087    1.043852
     16          6           0       -0.796294    0.671769    0.490042
     17          8           0        5.065214    0.233637    0.482428
     18          1           0        5.358072    0.971541   -0.064090
     19          8           0       -0.135246    0.883274    1.504578
     20          7           0       -2.515339   -0.810645   -0.481101
     21          1           0       -2.613240   -1.186320   -1.412148
     22          7           0       -1.143564    1.641050   -0.359233
     23          1           0       -1.671013    1.401235   -1.183326
     24          6           0       -3.618850   -0.476105    0.214230
     25          6           0       -4.924418   -0.632805   -0.490361
     26          1           0       -5.562618   -1.290420    0.099415
     27          1           0       -5.415531    0.338935   -0.539149
     28          1           0       -4.824136   -1.033810   -1.496515
     29          6           0       -0.668745    2.995114   -0.191010
     30          1           0        0.422210    3.032765   -0.217598
     31          1           0       -1.061844    3.609191   -0.995606
     32          1           0       -1.001614    3.411396    0.759943
     33          8           0       -3.547761   -0.056153    1.366885
 ---------------------------------------------------------------------

 SCF Done:  E(RM06) =  -801.858553895     A.U. after   10 cycles

      1  C    Isotropic =    61.2907   Anisotropy =   134.4242

      2  C    Isotropic =    42.6682   Anisotropy =   166.0369

      3  C    Isotropic =    47.1772   Anisotropy =   189.0928

      4  C    Isotropic =    38.1029   Anisotropy =   183.9574

      5  C    Isotropic =    57.3573   Anisotropy =   158.8457

      6  C    Isotropic =    14.8055   Anisotropy =   152.1895

      7  H    Isotropic =    25.5106   Anisotropy =     6.1081

      8  H    Isotropic =    25.0413   Anisotropy =     7.4518

      9  H    Isotropic =    24.4452   Anisotropy =     8.7602

     10  H    Isotropic =    24.8420   Anisotropy =     5.6252

     11  C    Isotropic =   136.8841   Anisotropy =    33.0870

     12  H    Isotropic =    30.0404   Anisotropy =     3.5393

     13  H    Isotropic =    28.7629   Anisotropy =     5.8593

     14  C    Isotropic =   119.3121   Anisotropy =    20.7986

     15  H    Isotropic =    27.8162   Anisotropy =     3.6135

     16  C    Isotropic =     0.9979   Anisotropy =   135.9671

     17  O    Isotropic =   197.8949   Anisotropy =    61.3725

     18  H    Isotropic =    27.8029   Anisotropy =    12.5516

     19  O    Isotropic =  -119.2769   Anisotropy =   672.2408

     20  N    Isotropic =   110.0903   Anisotropy =   158.9368

     21  H    Isotropic =    26.5919   Anisotropy =     6.9296

     22  N    Isotropic =   149.3097   Anisotropy =   106.9702

     23  H    Isotropic =    26.7817   Anisotropy =     6.4183

     24  C    Isotropic =     3.2572   Anisotropy =   130.1840

     25  C    Isotropic =   156.3118   Anisotropy =    41.1982

     26  H    Isotropic =    29.8837   Anisotropy =     7.4269

     27  H    Isotropic =    29.9344   Anisotropy =     6.5325

     28  H    Isotropic =    30.6351   Anisotropy =     5.6333

     29  C    Isotropic =   150.3376   Anisotropy =    38.6602

     30  H    Isotropic =    29.5846   Anisotropy =     8.0083

     31  H    Isotropic =    29.9646   Anisotropy =     9.0559

     32  H    Isotropic =    29.2115   Anisotropy =    10.0750

     33  O    Isotropic =  -124.3805   Anisotropy =   689.6903

 The electronic state is 1-A.
 Alpha  occ. eigenvalues --  -19.24516 -19.17753 -19.16485 -14.42958 -14.41537
 Alpha  occ. eigenvalues --  -10.34534 -10.32868 -10.30416 -10.29251 -10.26815
 Alpha  occ. eigenvalues --  -10.26366 -10.25023 -10.24683 -10.24620 -10.24267
 Alpha  occ. eigenvalues --  -10.24171 -10.23544  -1.08745  -1.05882  -1.04164
 Alpha  occ. eigenvalues --   -0.95832  -0.93490  -0.87513  -0.81650  -0.77161
 Alpha  occ. eigenvalues --   -0.76339  -0.73913  -0.71664  -0.66727  -0.63769
 Alpha  occ. eigenvalues --   -0.62282  -0.59654  -0.59428  -0.56009  -0.54861
 Alpha  occ. eigenvalues --   -0.52562  -0.50293  -0.49874  -0.47697  -0.47046
 Alpha  occ. eigenvalues --   -0.46988  -0.45618  -0.44939  -0.44274  -0.43519
 Alpha  occ. eigenvalues --   -0.42837  -0.42186  -0.41862  -0.41163  -0.40989
 Alpha  occ. eigenvalues --   -0.39723  -0.39054  -0.37689  -0.37418  -0.35774
 Alpha  occ. eigenvalues --   -0.34977  -0.34826  -0.29687  -0.27332  -0.27107
 Alpha  occ. eigenvalues --   -0.26719  -0.25377  -0.23380
 Alpha virt. eigenvalues --   -0.00845   0.00070   0.01058   0.02026   0.02380
 Alpha virt. eigenvalues --    0.02905   0.03671   0.04941   0.05369   0.06265
 Alpha virt. eigenvalues --    0.06851   0.07837   0.09308   0.09864   0.10560

 Mulliken charges:
               1
     1  C   -0.249263
     2  C   -0.284581
     3  C    0.204252
     4  C   -0.180022
     5  C   -0.156846
     6  C    0.298420
     7  H    0.117865
     8  H    0.170152
     9  H    0.148291
    10  H    0.118275
    11  C   -0.479438
    12  H    0.192183
    13  H    0.196422
    14  C   -0.052517
    15  H    0.212946
    16  C    0.229357
    17  O   -0.293827
    18  H    0.187456
    19  O   -0.368136
    20  N   -0.235861
    21  H    0.154950
    22  N   -0.124027
    23  H    0.132636
    24  C    0.278967
    25  C   -0.317174
    26  H    0.122421
    27  H    0.119488
    28  H    0.096380
    29  C   -0.195340
    30  H    0.119655
    31  H    0.085814
    32  H    0.127966
    33  O   -0.376864
 Sum of Mulliken charges =   0.00000

 Dipole moment (field-independent basis, Debye):
    X=             -0.9423    Y=             -0.0716    Z=             -6.9087  Tot=              6.9731
 Quadrupole moment (field-independent basis, Debye-Ang):
   XX=            -92.6461   YY=            -90.0802   ZZ=           -105.4368
   XY=              9.2082   XZ=              9.5592   YZ=             -6.5287

 Normal termination of Gaussian 09 at Wed Jun 25 06:44:37 2014.
