 Gaussian 09, Revision D.01,
 Gaussian 09:  EM64L-G09RevD.01 24-Apr-2013

 ----------------------------------------------------------------------
 #p nmr=(giao,mixed,spinspin) m06/cc-pvtz scf=tight integral=(grid=ultr
 afine)
 ----------------------------------------------------------------------

 ------------------
 NMR spin-spin scan
 ------------------
 Symbolic Z-matrix:
 Charge =  0 Multiplicity = 1

 SCF Done:  E(RM06) =  -801.911123361     A.U. after   16 cycles
 Normal termination of Gaussian 09 at Wed Jun 25 01:42:32 2014.

 ----------------------------------------------------------------------
 #P Geom=AllCheck Guess=TCheck SCRF=Check GenChk RM06/ChkBas NMR=ReadFC
  IOp(3/6=22)
 ----------------------------------------------------------------------

 Structure from the checkpoint file:  "/home/ztw1e12/tyrosine_scan/tyrosine_chi1_scan/Gau-7669.chk"
 ------------------
 NMR spin-spin scan
 ------------------
 Charge =  0 Multiplicity = 1

                         Standard orientation:
 ---------------------------------------------------------------------
 Center     Atomic      Atomic             Coordinates (Angstroms)
 Number     Number       Type             X           Y           Z
 ---------------------------------------------------------------------
      1          6           0        3.049247    0.436644   -1.029283
      2          6           0        1.770250   -0.034207   -1.275786
      3          6           0        1.203122   -1.022958   -0.484327
      4          6           0        1.959777   -1.540399    0.562380
      5          6           0        3.237219   -1.084455    0.821424
      6          6           0        3.782804   -0.088104    0.023753
      7          1           0        3.487530    1.206253   -1.654211
      8          1           0        1.201420    0.378971   -2.101468
      9          1           0        1.530960   -2.313365    1.191238
     10          1           0        3.824013   -1.489890    1.635801
     11          6           0       -0.205912   -1.481222   -0.698985
     12          1           0       -0.478699   -1.273259   -1.738570
     13          1           0       -0.296601   -2.557920   -0.549321
     14          6           0       -1.245764   -0.781161    0.197886
     15          1           0       -1.334087   -1.309416    1.150499
     16          6           0       -0.778568    0.622002    0.561771
     17          8           0        5.045009    0.334366    0.313317
     18          1           0        5.303689    1.021560   -0.311006
     19          8           0       -0.166073    0.823275    1.608177
     20          7           0       -2.522186   -0.771058   -0.483472
     21          1           0       -2.578549   -1.144524   -1.418761
     22          7           0       -1.020880    1.584066   -0.331304
     23          1           0       -1.487242    1.336953   -1.189759
     24          6           0       -3.651278   -0.378344    0.137694
     25          6           0       -4.914892   -0.471992   -0.650793
     26          1           0       -5.625631   -1.087890   -0.100502
     27          1           0       -5.347379    0.524735   -0.737847
     28          1           0       -4.773292   -0.888009   -1.645756
     29          6           0       -0.470227    2.910795   -0.181669
     30          1           0        0.621994    2.885829   -0.171535
     31          1           0       -0.798705    3.525797   -1.014164
     32          1           0       -0.809039    3.371185    0.746299
     33          8           0       -3.635635    0.042652    1.292020
 ---------------------------------------------------------------------

 SCF Done:  E(RM06) =  -801.856817972     A.U. after   10 cycles

      1  C    Isotropic =    61.8401   Anisotropy =   133.9772

      2  C    Isotropic =    42.5730   Anisotropy =   165.9989

      3  C    Isotropic =    47.1434   Anisotropy =   189.4076

      4  C    Isotropic =    37.1832   Anisotropy =   183.7618

      5  C    Isotropic =    57.4350   Anisotropy =   158.6145

      6  C    Isotropic =    14.8603   Anisotropy =   152.1152

      7  H    Isotropic =    25.5169   Anisotropy =     6.0855

      8  H    Isotropic =    25.0673   Anisotropy =     7.4304

      9  H    Isotropic =    24.4435   Anisotropy =     8.6299

     10  H    Isotropic =    24.8589   Anisotropy =     5.5788

     11  C    Isotropic =   136.9158   Anisotropy =    33.7183

     12  H    Isotropic =    30.1151   Anisotropy =     3.8691

     13  H    Isotropic =    28.6332   Anisotropy =     6.0498

     14  C    Isotropic =   120.1759   Anisotropy =    24.1214

     15  H    Isotropic =    27.7052   Anisotropy =     3.7857

     16  C    Isotropic =     0.7688   Anisotropy =   136.8882

     17  O    Isotropic =   198.0731   Anisotropy =    61.0737

     18  H    Isotropic =    27.8089   Anisotropy =    12.5580

     19  O    Isotropic =  -116.5354   Anisotropy =   668.3333

     20  N    Isotropic =   108.0407   Anisotropy =   163.0948

     21  H    Isotropic =    26.6490   Anisotropy =     6.8957

     22  N    Isotropic =   147.0860   Anisotropy =   106.5124

     23  H    Isotropic =    26.8147   Anisotropy =     6.2552

     24  C    Isotropic =     3.0451   Anisotropy =   130.2545

     25  C    Isotropic =   156.2802   Anisotropy =    41.2369

     26  H    Isotropic =    29.8898   Anisotropy =     7.4433

     27  H    Isotropic =    29.9266   Anisotropy =     6.5195

     28  H    Isotropic =    30.6345   Anisotropy =     5.6053

     29  C    Isotropic =   150.4809   Anisotropy =    38.6389

     30  H    Isotropic =    29.7476   Anisotropy =     7.7525

     31  H    Isotropic =    30.0010   Anisotropy =     9.0614

     32  H    Isotropic =    29.2274   Anisotropy =    10.1461

     33  O    Isotropic =  -125.7350   Anisotropy =   689.9317

 The electronic state is 1-A.
 Alpha  occ. eigenvalues --  -19.24634 -19.17749 -19.16543 -14.42951 -14.41550
 Alpha  occ. eigenvalues --  -10.34526 -10.32872 -10.30550 -10.29273 -10.26816
 Alpha  occ. eigenvalues --  -10.26404 -10.25010 -10.24821 -10.24720 -10.24335
 Alpha  occ. eigenvalues --  -10.24324 -10.23612  -1.08852  -1.05861  -1.04199
 Alpha  occ. eigenvalues --   -0.95823  -0.93504  -0.87610  -0.81610  -0.77191
 Alpha  occ. eigenvalues --   -0.76450  -0.73921  -0.71727  -0.66793  -0.63877
 Alpha  occ. eigenvalues --   -0.62315  -0.59728  -0.59380  -0.56104  -0.54897
 Alpha  occ. eigenvalues --   -0.52560  -0.50179  -0.50002  -0.47785  -0.47119
 Alpha  occ. eigenvalues --   -0.46917  -0.45601  -0.45057  -0.44273  -0.43637
 Alpha  occ. eigenvalues --   -0.42926  -0.42230  -0.41829  -0.41193  -0.41021
 Alpha  occ. eigenvalues --   -0.39759  -0.39061  -0.37768  -0.37420  -0.35730
 Alpha  occ. eigenvalues --   -0.35090  -0.34904  -0.29741  -0.27526  -0.27118
 Alpha  occ. eigenvalues --   -0.26635  -0.25377  -0.23518
 Alpha virt. eigenvalues --   -0.00937  -0.00110   0.00932   0.01978   0.02256
 Alpha virt. eigenvalues --    0.02941   0.03710   0.04944   0.05326   0.06386
 Alpha virt. eigenvalues --    0.06947   0.07806   0.09260   0.09998   0.10627

 Mulliken charges:
               1
     1  C   -0.258732
     2  C   -0.301079
     3  C    0.217306
     4  C   -0.177539
     5  C   -0.154000
     6  C    0.299717
     7  H    0.123114
     8  H    0.173539
     9  H    0.149144
    10  H    0.118517
    11  C   -0.485758
    12  H    0.193716
    13  H    0.193837
    14  C   -0.052305
    15  H    0.211436
    16  C    0.239507
    17  O   -0.293092
    18  H    0.187155
    19  O   -0.369069
    20  N   -0.238552
    21  H    0.156716
    22  N   -0.127377
    23  H    0.132869
    24  C    0.280527
    25  C   -0.317570
    26  H    0.122295
    27  H    0.119609
    28  H    0.096357
    29  C   -0.203517
    30  H    0.121995
    31  H    0.087858
    32  H    0.130663
    33  O   -0.377289
 Sum of Mulliken charges =   0.00000

 Dipole moment (field-independent basis, Debye):
    X=             -0.5769    Y=             -0.2336    Z=             -7.0552  Tot=              7.0826
 Quadrupole moment (field-independent basis, Debye-Ang):
   XX=            -94.7329   YY=            -90.7794   ZZ=           -104.5856
   XY=              9.2197   XZ=              9.2200   YZ=             -7.2451

 Normal termination of Gaussian 09 at Wed Jun 25 06:58:23 2014.
