 Gaussian 09, Revision D.01,
 Gaussian 09:  EM64L-G09RevD.01 24-Apr-2013

 ----------------------------------------------------------------------
 #p nmr=(giao,mixed,spinspin) m06/cc-pvtz scf=tight integral=(grid=ultr
 afine)
 ----------------------------------------------------------------------

 ------------------
 NMR spin-spin scan
 ------------------
 Symbolic Z-matrix:
 Charge =  0 Multiplicity = 1

 SCF Done:  E(RM06) =  -801.914137012     A.U. after   16 cycles
 Normal termination of Gaussian 09 at Wed Jun 25 01:25:01 2014.

 ----------------------------------------------------------------------
 #P Geom=AllCheck Guess=TCheck SCRF=Check GenChk RM06/ChkBas NMR=ReadFC
  IOp(3/6=22)
 ----------------------------------------------------------------------

 Structure from the checkpoint file:  "/home/ztw1e12/tyrosine_scan/tyrosine_chi1_scan/Gau-31892.chk"
 ------------------
 NMR spin-spin scan
 ------------------
 Charge =  0 Multiplicity = 1

                         Standard orientation:
 ---------------------------------------------------------------------
 Center     Atomic      Atomic             Coordinates (Angstroms)
 Number     Number       Type             X           Y           Z
 ---------------------------------------------------------------------
      1          6           0        3.335584    0.646723   -0.715547
      2          6           0        2.044198    0.387560   -1.143897
      3          6           0        1.340579   -0.716571   -0.683928
      4          6           0        1.966524   -1.561493    0.226878
      5          6           0        3.253161   -1.317612    0.665058
      6          6           0        3.940721   -0.207768    0.192448
      7          1           0        3.879450    1.510016   -1.081578
      8          1           0        1.574804    1.060450   -1.853604
      9          1           0        1.431876   -2.429278    0.598440
     10          1           0        3.739622   -1.978250    1.371420
     11          6           0       -0.072493   -0.968764   -1.106948
     12          1           0       -0.308841   -0.394299   -2.007454
     13          1           0       -0.214060   -2.025769   -1.348913
     14          6           0       -1.090076   -0.614606   -0.022000
     15          1           0       -0.873444   -1.195207    0.879898
     16          6           0       -0.932965    0.840370    0.391769
     17          8           0        5.208436   -0.009268    0.651171
     18          1           0        5.578159    0.783541    0.246600
     19          8           0       -0.244541    1.135949    1.366730
     20          7           0       -2.414783   -0.937770   -0.501321
     21          1           0       -2.515365   -1.330801   -1.424974
     22          7           0       -1.516338    1.755451   -0.384967
     23          1           0       -2.088062    1.446871   -1.154794
     24          6           0       -3.502369   -0.798845    0.280278
     25          6           0       -4.808575   -1.203551   -0.316730
     26          1           0       -5.268106   -1.956622    0.322865
     27          1           0       -5.471196   -0.338187   -0.328512
     28          1           0       -4.715259   -1.596438   -1.326872
     29          6           0       -1.393346    3.169184   -0.113525
     30          1           0       -0.347624    3.478885   -0.122804
     31          1           0       -1.926652    3.722865   -0.880250
     32          1           0       -1.815959    3.421822    0.859666
     33          8           0       -3.417289   -0.355573    1.423567
 ---------------------------------------------------------------------

 SCF Done:  E(RM06) =  -801.859850249     A.U. after   10 cycles

      1  C    Isotropic =    60.8188   Anisotropy =   135.7652

      2  C    Isotropic =    41.5610   Anisotropy =   167.6533

      3  C    Isotropic =    46.6248   Anisotropy =   188.2035

      4  C    Isotropic =    39.8852   Anisotropy =   181.6079

      5  C    Isotropic =    57.4910   Anisotropy =   158.1277

      6  C    Isotropic =    14.9650   Anisotropy =   151.3519

      7  H    Isotropic =    25.4857   Anisotropy =     6.1114

      8  H    Isotropic =    24.9537   Anisotropy =     7.9993

      9  H    Isotropic =    24.4714   Anisotropy =     9.0311

     10  H    Isotropic =    24.8317   Anisotropy =     5.8121

     11  C    Isotropic =   136.7374   Anisotropy =    31.5051

     12  H    Isotropic =    29.7941   Anisotropy =     3.3035

     13  H    Isotropic =    29.0828   Anisotropy =     5.3169

     14  C    Isotropic =   117.5174   Anisotropy =    16.7010

     15  H    Isotropic =    27.9112   Anisotropy =     3.7809

     16  C    Isotropic =     0.9364   Anisotropy =   133.9406

     17  O    Isotropic =   198.7094   Anisotropy =    61.2622

     18  H    Isotropic =    27.7953   Anisotropy =    12.7540

     19  O    Isotropic =  -123.2528   Anisotropy =   678.4314

     20  N    Isotropic =   111.0806   Anisotropy =   154.2377

     21  H    Isotropic =    26.4761   Anisotropy =     6.8550

     22  N    Isotropic =   151.8865   Anisotropy =   105.3050

     23  H    Isotropic =    26.8014   Anisotropy =     6.7319

     24  C    Isotropic =     3.3744   Anisotropy =   130.0376

     25  C    Isotropic =   156.3276   Anisotropy =    41.1622

     26  H    Isotropic =    29.8752   Anisotropy =     7.3754

     27  H    Isotropic =    29.9410   Anisotropy =     6.5569

     28  H    Isotropic =    30.6257   Anisotropy =     5.6685

     29  C    Isotropic =   150.3095   Anisotropy =    38.7952

     30  H    Isotropic =    29.2304   Anisotropy =     8.6692

     31  H    Isotropic =    29.8891   Anisotropy =     8.9991

     32  H    Isotropic =    29.2150   Anisotropy =     9.9310

     33  O    Isotropic =  -122.4188   Anisotropy =   688.4639

 The electronic state is 1-A.
 Alpha  occ. eigenvalues --  -19.24405 -19.17804 -19.16482 -14.42970 -14.41562
 Alpha  occ. eigenvalues --  -10.34589 -10.32912 -10.30300 -10.29163 -10.26847
 Alpha  occ. eigenvalues --  -10.26260 -10.25064 -10.24586 -10.24450 -10.24238
 Alpha  occ. eigenvalues --  -10.24000 -10.23500  -1.08597  -1.05922  -1.04153
 Alpha  occ. eigenvalues --   -0.95824  -0.93534  -0.87417  -0.81682  -0.77141
 Alpha  occ. eigenvalues --   -0.76224  -0.73977  -0.71638  -0.66686  -0.63680
 Alpha  occ. eigenvalues --   -0.62192  -0.59684  -0.59425  -0.55955  -0.54828
 Alpha  occ. eigenvalues --   -0.52504  -0.50492  -0.49692  -0.47760  -0.47104
 Alpha  occ. eigenvalues --   -0.46851  -0.45610  -0.44842  -0.44175  -0.43367
 Alpha  occ. eigenvalues --   -0.42754  -0.42174  -0.41945  -0.41156  -0.40965
 Alpha  occ. eigenvalues --   -0.39695  -0.39143  -0.37663  -0.37288  -0.35929
 Alpha  occ. eigenvalues --   -0.34877  -0.34748  -0.29590  -0.27235  -0.27043
 Alpha  occ. eigenvalues --   -0.26781  -0.25516  -0.23230
 Alpha virt. eigenvalues --   -0.00753   0.00209   0.01256   0.02038   0.02555
 Alpha virt. eigenvalues --    0.02924   0.03591   0.04788   0.05474   0.06153
 Alpha virt. eigenvalues --    0.06663   0.07887   0.09222   0.09816   0.10374

 Mulliken charges:
               1
     1  C   -0.224885
     2  C   -0.265392
     3  C    0.191077
     4  C   -0.200436
     5  C   -0.160772
     6  C    0.287914
     7  H    0.110656
     8  H    0.163931
     9  H    0.146823
    10  H    0.119397
    11  C   -0.479528
    12  H    0.209810
    13  H    0.195815
    14  C   -0.061366
    15  H    0.218188
    16  C    0.236625
    17  O   -0.294645
    18  H    0.187398
    19  O   -0.369751
    20  N   -0.229013
    21  H    0.152395
    22  N   -0.126733
    23  H    0.129913
    24  C    0.276549
    25  C   -0.316234
    26  H    0.122611
    27  H    0.118945
    28  H    0.096609
    29  C   -0.176781
    30  H    0.113131
    31  H    0.083414
    32  H    0.121335
    33  O   -0.376999
 Sum of Mulliken charges =   0.00000

 Dipole moment (field-independent basis, Debye):
    X=             -1.3197    Y=             -0.0318    Z=             -6.6352  Tot=              6.7653
 Quadrupole moment (field-independent basis, Debye-Ang):
   XX=            -89.2880   YY=            -89.1880   ZZ=           -106.4889
   XY=              8.6714   XZ=             10.3259   YZ=             -4.8036

 Normal termination of Gaussian 09 at Wed Jun 25 06:26:53 2014.
