 Gaussian 09, Revision D.01,
 Gaussian 09:  EM64L-G09RevD.01 24-Apr-2013

 ----------------------------------------------------------------------
 #p nmr=(giao,mixed,spinspin) m06/cc-pvtz scf=tight integral=(grid=ultr
 afine)
 ----------------------------------------------------------------------

 ------------------
 NMR spin-spin scan
 ------------------
 Symbolic Z-matrix:
 Charge =  0 Multiplicity = 1

 SCF Done:  E(RM06) =  -801.913182807     A.U. after   15 cycles
 Normal termination of Gaussian 09 at Wed Jun 25 01:31:02 2014.

 ----------------------------------------------------------------------
 #P Geom=AllCheck Guess=TCheck SCRF=Check GenChk RM06/ChkBas NMR=ReadFC
  IOp(3/6=22)
 ----------------------------------------------------------------------

 Structure from the checkpoint file:  "/home/ztw1e12/tyrosine_scan/tyrosine_chi1_scan/Gau-4335.chk"
 ------------------
 NMR spin-spin scan
 ------------------
 Charge =  0 Multiplicity = 1

                         Standard orientation:
 ---------------------------------------------------------------------
 Center     Atomic      Atomic             Coordinates (Angstroms)
 Number     Number       Type             X           Y           Z
 ---------------------------------------------------------------------
      1          6           0        3.482958    0.824872   -0.415607
      2          6           0        2.186128    0.726771   -0.891328
      3          6           0        1.443212   -0.433643   -0.725688
      4          6           0        2.034892   -1.503166   -0.061641
      5          6           0        3.327298   -1.422994    0.418765
      6          6           0        4.054073   -0.253766    0.240418
      7          1           0        4.057128    1.734494   -0.548523
      8          1           0        1.739733    1.573012   -1.402778
      9          1           0        1.469846   -2.418778    0.077278
     10          1           0        3.788102   -2.258467    0.930375
     11          6           0        0.034349   -0.531706   -1.222096
     12          1           0       -0.163499    0.224149   -1.986510
     13          1           0       -0.110657   -1.508802   -1.692503
     14          6           0       -1.008874   -0.414168   -0.104826
     15          1           0       -0.643727   -0.946003    0.778967
     16          6           0       -1.138377    1.037348    0.321712
     17          8           0        5.326696   -0.218241    0.726307
     18          1           0        5.719981    0.638441    0.525609
     19          8           0       -0.404341    1.489078    1.199173
     20          7           0       -2.252170   -1.016422   -0.531588
     21          1           0       -2.321099   -1.384993   -1.468074
     22          7           0       -2.018883    1.787193   -0.343639
     23          1           0       -2.616771    1.342010   -1.021352
     24          6           0       -3.283773   -1.179493    0.318709
     25          6           0       -4.498500   -1.852021   -0.227627
     26          1           0       -4.735826   -2.713535    0.395625
     27          1           0       -5.338249   -1.160141   -0.160464
     28          1           0       -4.381996   -2.173505   -1.260363
     29          6           0       -2.200668    3.189609   -0.047319
     30          1           0       -1.263284    3.735052   -0.155935
     31          1           0       -2.927067    3.604493   -0.739502
     32          1           0       -2.564414    3.334957    0.970807
     33          8           0       -3.223248   -0.788793    1.482407
 ---------------------------------------------------------------------

 SCF Done:  E(RM06) =  -801.858869445     A.U. after   10 cycles

      1  C    Isotropic =    60.8790   Anisotropy =   135.0609

      2  C    Isotropic =    39.2885   Anisotropy =   171.2654

      3  C    Isotropic =    45.0998   Anisotropy =   188.2193

      4  C    Isotropic =    40.8642   Anisotropy =   177.9472

      5  C    Isotropic =    58.1855   Anisotropy =   156.9001

      6  C    Isotropic =    15.2560   Anisotropy =   150.9955

      7  H    Isotropic =    25.4492   Anisotropy =     6.1047

      8  H    Isotropic =    24.8965   Anisotropy =     8.4460

      9  H    Isotropic =    24.5391   Anisotropy =     9.1504

     10  H    Isotropic =    24.8579   Anisotropy =     5.9351

     11  C    Isotropic =   136.0874   Anisotropy =    29.3832

     12  H    Isotropic =    29.5179   Anisotropy =     3.2988

     13  H    Isotropic =    29.3892   Anisotropy =     4.7004

     14  C    Isotropic =   117.2605   Anisotropy =    18.2690

     15  H    Isotropic =    27.9645   Anisotropy =     4.2875

     16  C    Isotropic =     0.3971   Anisotropy =   133.2347

     17  O    Isotropic =   198.6946   Anisotropy =    61.7693

     18  H    Isotropic =    27.7726   Anisotropy =    12.7677

     19  O    Isotropic =  -114.0465   Anisotropy =   674.6080

     20  N    Isotropic =   109.7146   Anisotropy =   155.8707

     21  H    Isotropic =    26.4404   Anisotropy =     6.6040

     22  N    Isotropic =   153.4167   Anisotropy =   104.1377

     23  H    Isotropic =    26.6725   Anisotropy =     7.2454

     24  C    Isotropic =     3.2993   Anisotropy =   130.3117

     25  C    Isotropic =   156.1933   Anisotropy =    41.2758

     26  H    Isotropic =    29.8555   Anisotropy =     7.3241

     27  H    Isotropic =    29.9196   Anisotropy =     6.5955

     28  H    Isotropic =    30.6037   Anisotropy =     5.5975

     29  C    Isotropic =   150.3062   Anisotropy =    39.0962

     30  H    Isotropic =    29.0531   Anisotropy =     8.9380

     31  H    Isotropic =    29.8388   Anisotropy =     8.9678

     32  H    Isotropic =    29.1851   Anisotropy =     9.8201

     33  O    Isotropic =  -121.8695   Anisotropy =   690.9117

 The electronic state is 1-A.
 Alpha  occ. eigenvalues --  -19.24368 -19.17913 -19.16723 -14.43057 -14.41663
 Alpha  occ. eigenvalues --  -10.34687 -10.33100 -10.30243 -10.29166 -10.26956
 Alpha  occ. eigenvalues --  -10.26211 -10.25154 -10.24535 -10.24307 -10.24266
 Alpha  occ. eigenvalues --  -10.23882 -10.23502  -1.08582  -1.06029  -1.04381
 Alpha  occ. eigenvalues --   -0.95908  -0.93656  -0.87362  -0.81620  -0.77191
 Alpha  occ. eigenvalues --   -0.76175  -0.74105  -0.71671  -0.66694  -0.63666
 Alpha  occ. eigenvalues --   -0.62077  -0.59821  -0.59497  -0.55913  -0.54944
 Alpha  occ. eigenvalues --   -0.52389  -0.50671  -0.49596  -0.48140  -0.47163
 Alpha  occ. eigenvalues --   -0.46765  -0.45615  -0.44865  -0.43886  -0.43272
 Alpha  occ. eigenvalues --   -0.42762  -0.42246  -0.42110  -0.41254  -0.41004
 Alpha  occ. eigenvalues --   -0.39831  -0.39292  -0.37885  -0.37039  -0.36092
 Alpha  occ. eigenvalues --   -0.34842  -0.34659  -0.29759  -0.27372  -0.27271
 Alpha  occ. eigenvalues --   -0.26627  -0.25790  -0.23136
 Alpha virt. eigenvalues --   -0.00695   0.00269   0.01424   0.01766   0.02696
 Alpha virt. eigenvalues --    0.03030   0.03589   0.04630   0.05694   0.06113
 Alpha virt. eigenvalues --    0.06735   0.07876   0.09182   0.09646   0.10433

 Mulliken charges:
               1
     1  C   -0.231836
     2  C   -0.215885
     3  C    0.180430
     4  C   -0.215127
     5  C   -0.168613
     6  C    0.287341
     7  H    0.110194
     8  H    0.146250
     9  H    0.148094
    10  H    0.120718
    11  C   -0.481682
    12  H    0.213785
    13  H    0.196589
    14  C   -0.068453
    15  H    0.228611
    16  C    0.256629
    17  O   -0.295700
    18  H    0.188214
    19  O   -0.375915
    20  N   -0.229155
    21  H    0.153768
    22  N   -0.141783
    23  H    0.132126
    24  C    0.273104
    25  C   -0.315028
    26  H    0.123108
    27  H    0.118908
    28  H    0.097289
    29  C   -0.173548
    30  H    0.113850
    31  H    0.083622
    32  H    0.117847
    33  O   -0.377753
 Sum of Mulliken charges =   0.00000

 Dipole moment (field-independent basis, Debye):
    X=             -1.6683    Y=             -0.0593    Z=             -6.2109  Tot=              6.4314
 Quadrupole moment (field-independent basis, Debye-Ang):
   XX=            -86.7738   YY=            -89.5853   ZZ=           -107.2443
   XY=              7.6593   XZ=             11.8233   YZ=             -2.1633

 Normal termination of Gaussian 09 at Wed Jun 25 06:22:32 2014.
