 Gaussian 09, Revision D.01,
 Gaussian 09:  EM64L-G09RevD.01 24-Apr-2013

 ----------------------------------------------------------------------
 #p nmr=(giao,mixed,spinspin) m06/cc-pvtz scf=tight integral=(grid=ultr
 afine)
 ----------------------------------------------------------------------

 ------------------
 NMR spin-spin scan
 ------------------
 Symbolic Z-matrix:
 Charge =  0 Multiplicity = 1

 SCF Done:  E(RM06) =  -801.922339902     A.U. after   15 cycles
 Normal termination of Gaussian 09 at Wed Jun 25 01:44:50 2014.

 ----------------------------------------------------------------------
 #P Geom=AllCheck Guess=TCheck SCRF=Check GenChk RM06/ChkBas NMR=ReadFC
  IOp(3/6=22)
 ----------------------------------------------------------------------

 Structure from the checkpoint file:  "/home/ztw1e12/tyrosine_scan/tyrosine_chi1_scan/Gau-31411.chk"
 ------------------
 NMR spin-spin scan
 ------------------
 Charge =  0 Multiplicity = 1

                         Standard orientation:
 ---------------------------------------------------------------------
 Center     Atomic      Atomic             Coordinates (Angstroms)
 Number     Number       Type             X           Y           Z
 ---------------------------------------------------------------------
      1          6           0        2.992907   -1.342821    0.152048
      2          6           0        1.837706   -1.246994    0.909737
      3          6           0        1.184892   -0.032871    1.085724
      4          6           0        1.730370    1.095718    0.477343
      5          6           0        2.881303    1.017281   -0.281873
      6          6           0        3.514417   -0.207177   -0.446631
      7          1           0        3.496715   -2.294125    0.025422
      8          1           0        1.437427   -2.137264    1.383278
      9          1           0        1.248495    2.059076    0.610798
     10          1           0        3.305842    1.897511   -0.747610
     11          6           0       -0.078349    0.057838    1.887787
     12          1           0       -0.127861   -0.781160    2.584484
     13          1           0       -0.096626    0.972498    2.481205
     14          6           0       -1.357721    0.035962    1.043804
     15          1           0       -2.211576   -0.057494    1.718406
     16          6           0       -1.545346    1.380770    0.354842
     17          8           0        4.649029   -0.235468   -1.199117
     18          1           0        4.993962   -1.135042   -1.225434
     19          8           0       -1.662818    2.396916    1.039793
     20          7           0       -1.364961   -1.092302    0.143616
     21          1           0       -0.479687   -1.476714   -0.155044
     22          7           0       -1.571994    1.404020   -0.976870
     23          1           0       -1.464216    0.539716   -1.482419
     24          6           0       -2.502596   -1.664294   -0.301977
     25          6           0       -2.337316   -2.838314   -1.209333
     26          1           0       -2.852091   -3.693521   -0.772074
     27          1           0       -2.824300   -2.616975   -2.158975
     28          1           0       -1.297266   -3.098361   -1.392578
     29          6           0       -1.709291    2.644631   -1.704493
     30          1           0       -0.869831    3.311590   -1.500320
     31          1           0       -1.734658    2.429542   -2.768223
     32          1           0       -2.629599    3.158593   -1.427015
     33          8           0       -3.611447   -1.243732    0.016450
 ---------------------------------------------------------------------

 SCF Done:  E(RM06) =  -801.867942852     A.U. after   10 cycles

      1  C    Isotropic =    61.2163   Anisotropy =   135.2926

      2  C    Isotropic =    42.2980   Anisotropy =   165.6892

      3  C    Isotropic =    45.2956   Anisotropy =   193.1828

      4  C    Isotropic =    38.7164   Anisotropy =   185.7904

      5  C    Isotropic =    56.5295   Anisotropy =   159.6282

      6  C    Isotropic =    15.0839   Anisotropy =   151.7484

      7  H    Isotropic =    25.3249   Anisotropy =     5.8307

      8  H    Isotropic =    24.7629   Anisotropy =     7.7770

      9  H    Isotropic =    24.4396   Anisotropy =     8.9550

     10  H    Isotropic =    24.8261   Anisotropy =     6.4384

     11  C    Isotropic =   141.0070   Anisotropy =    15.7243

     12  H    Isotropic =    29.5669   Anisotropy =     7.2018

     13  H    Isotropic =    28.1091   Anisotropy =     6.4544

     14  C    Isotropic =   124.3022   Anisotropy =    32.7177

     15  H    Isotropic =    27.4030   Anisotropy =     5.2715

     16  C    Isotropic =    -0.6791   Anisotropy =   136.3507

     17  O    Isotropic =   198.1515   Anisotropy =    60.5823

     18  H    Isotropic =    27.7187   Anisotropy =    12.9058

     19  O    Isotropic =   -77.6068   Anisotropy =   657.2645

     20  N    Isotropic =   115.3720   Anisotropy =   126.7701

     21  H    Isotropic =    26.5184   Anisotropy =    10.8294

     22  N    Isotropic =   139.9018   Anisotropy =   103.2629

     23  H    Isotropic =    26.4276   Anisotropy =     8.5328

     24  C    Isotropic =     3.2903   Anisotropy =   130.0223

     25  C    Isotropic =   156.0105   Anisotropy =    41.2084

     26  H    Isotropic =    29.8894   Anisotropy =     7.4799

     27  H    Isotropic =    30.0410   Anisotropy =     6.8007

     28  H    Isotropic =    30.7657   Anisotropy =     4.6567

     29  C    Isotropic =   150.0015   Anisotropy =    38.8352

     30  H    Isotropic =    29.2366   Anisotropy =     8.7763

     31  H    Isotropic =    29.9273   Anisotropy =     8.9310

     32  H    Isotropic =    29.0179   Anisotropy =     9.9625

     33  O    Isotropic =  -109.7601   Anisotropy =   675.2134

 The electronic state is 1-A.
 Alpha  occ. eigenvalues --  -19.25748 -19.17893 -19.17151 -14.42725 -14.41946
 Alpha  occ. eigenvalues --  -10.34719 -10.33415 -10.31720 -10.29278 -10.27118
 Alpha  occ. eigenvalues --  -10.25890 -10.25725 -10.25524 -10.25424 -10.25355
 Alpha  occ. eigenvalues --  -10.25120 -10.24881  -1.09996  -1.06009  -1.04908
 Alpha  occ. eigenvalues --   -0.95950  -0.93798  -0.88603  -0.81741  -0.77726
 Alpha  occ. eigenvalues --   -0.77480  -0.74433  -0.72265  -0.66967  -0.64766
 Alpha  occ. eigenvalues --   -0.61489  -0.61335  -0.59686  -0.57229  -0.55622
 Alpha  occ. eigenvalues --   -0.52372  -0.50894  -0.50123  -0.48639  -0.47541
 Alpha  occ. eigenvalues --   -0.47029  -0.46169  -0.44920  -0.44632  -0.44390
 Alpha  occ. eigenvalues --   -0.43555  -0.43312  -0.42169  -0.41611  -0.41373
 Alpha  occ. eigenvalues --   -0.40364  -0.39130  -0.38705  -0.37790  -0.36031
 Alpha  occ. eigenvalues --   -0.35952  -0.35382  -0.30443  -0.28403  -0.27588
 Alpha  occ. eigenvalues --   -0.27302  -0.25902  -0.24680
 Alpha virt. eigenvalues --   -0.02410  -0.00560   0.01160   0.01639   0.02047
 Alpha virt. eigenvalues --    0.02865   0.03786   0.04184   0.06112   0.06680
 Alpha virt. eigenvalues --    0.07374   0.07678   0.09247   0.09777   0.10498

 Mulliken charges:
               1
     1  C   -0.237400
     2  C   -0.296657
     3  C    0.128329
     4  C   -0.242554
     5  C   -0.157452
     6  C    0.288260
     7  H    0.120581
     8  H    0.178142
     9  H    0.191494
    10  H    0.127603
    11  C   -0.367107
    12  H    0.183370
    13  H    0.196882
    14  C   -0.034254
    15  H    0.197538
    16  C    0.205773
    17  O   -0.290292
    18  H    0.188347
    19  O   -0.395590
    20  N   -0.266999
    21  H    0.196419
    22  N   -0.113695
    23  H    0.149506
    24  C    0.264275
    25  C   -0.321915
    26  H    0.124136
    27  H    0.119035
    28  H    0.102081
    29  C   -0.175547
    30  H    0.112749
    31  H    0.086579
    32  H    0.121806
    33  O   -0.383441
 Sum of Mulliken charges =   0.00000

 Dipole moment (field-independent basis, Debye):
    X=              4.2884    Y=             -4.0468    Z=             -3.0745  Tot=              6.6497
 Quadrupole moment (field-independent basis, Debye-Ang):
   XX=           -114.0861   YY=            -95.3308   ZZ=            -96.6009
   XY=             -5.2287   XZ=              5.3559   YZ=             -4.2084

 Normal termination of Gaussian 09 at Wed Jun 25 07:01:56 2014.
