 Gaussian 09, Revision D.01,
 Gaussian 09:  EM64L-G09RevD.01 24-Apr-2013

 ----------------------------------------------------------------------
 #p nmr=(giao,mixed,spinspin) m06/cc-pvtz scf=tight integral=(grid=ultr
 afine)
 ----------------------------------------------------------------------

 ------------------
 NMR spin-spin scan
 ------------------
 Symbolic Z-matrix:
 Charge =  0 Multiplicity = 1

 SCF Done:  E(RM06) =  -801.914077629     A.U. after   15 cycles
 Normal termination of Gaussian 09 at Wed Jun 25 01:27:23 2014.

 ----------------------------------------------------------------------
 #P Geom=AllCheck Guess=TCheck SCRF=Check GenChk RM06/ChkBas NMR=ReadFC
  IOp(3/6=22)
 ----------------------------------------------------------------------

 Structure from the checkpoint file:  "/home/ztw1e12/tyrosine_scan/tyrosine_chi1_scan/Gau-27346.chk"
 ------------------
 NMR spin-spin scan
 ------------------
 Charge =  0 Multiplicity = 1

                         Standard orientation:
 ---------------------------------------------------------------------
 Center     Atomic      Atomic             Coordinates (Angstroms)
 Number     Number       Type             X           Y           Z
 ---------------------------------------------------------------------
      1          6           0        3.268040    0.538686   -0.845540
      2          6           0        1.978868    0.217178   -1.237625
      3          6           0        1.285057   -0.827403   -0.643996
      4          6           0        1.922906   -1.553008    0.357531
      5          6           0        3.207334   -1.246411    0.760419
      6          6           0        3.882595   -0.193290    0.158021
      7          1           0        3.803757    1.354079   -1.317753
      8          1           0        1.506747    0.792619   -2.026259
      9          1           0        1.397048   -2.373764    0.833585
     10          1           0        3.701275   -1.813756    1.538988
     11          6           0       -0.131801   -1.135403   -1.014461
     12          1           0       -0.378401   -0.649830   -1.964188
     13          1           0       -0.275759   -2.210308   -1.150443
     14          6           0       -1.146551   -0.665334    0.032432
     15          1           0       -1.032048   -1.253226    0.947860
     16          6           0       -0.857887    0.773141    0.435298
     17          8           0        5.148092    0.072722    0.586940
     18          1           0        5.507234    0.818204    0.092599
     19          8           0       -0.169903    1.017399    1.424676
     20          7           0       -2.476756   -0.841923   -0.504861
     21          1           0       -2.577713   -1.227966   -1.431323
     22          7           0       -1.328426    1.728062   -0.369467
     23          1           0       -1.905631    1.466261   -1.152845
     24          6           0       -3.575583   -0.642450    0.248425
     25          6           0       -4.887230   -0.956716   -0.390147
     26          1           0       -5.394674   -1.711010    0.210950
     27          1           0       -5.508805   -0.061687   -0.382070
     28          1           0       -4.790691   -1.318719   -1.411515
     29          6           0       -1.020970    3.121694   -0.143235
     30          1           0        0.057385    3.288240   -0.164778
     31          1           0       -1.483337    3.716256   -0.925157
     32          1           0       -1.399050    3.458520    0.822498
     33          8           0       -3.495655   -0.222745    1.400560
 ---------------------------------------------------------------------

 SCF Done:  E(RM06) =  -801.859802326     A.U. after   10 cycles

      1  C    Isotropic =    61.0549   Anisotropy =   135.3345

      2  C    Isotropic =    42.5029   Anisotropy =   165.9720

      3  C    Isotropic =    47.0409   Anisotropy =   188.5229

      4  C    Isotropic =    38.8858   Anisotropy =   183.8002

      5  C    Isotropic =    57.3148   Anisotropy =   158.5886

      6  C    Isotropic =    14.8870   Anisotropy =   151.6014

      7  H    Isotropic =    25.5038   Anisotropy =     6.0698

      8  H    Isotropic =    25.0001   Anisotropy =     7.6955

      9  H    Isotropic =    24.4370   Anisotropy =     9.0071

     10  H    Isotropic =    24.8295   Anisotropy =     5.7536

     11  C    Isotropic =   136.7559   Anisotropy =    32.5117

     12  H    Isotropic =    29.9314   Anisotropy =     3.3459

     13  H    Isotropic =    28.9067   Anisotropy =     5.5391

     14  C    Isotropic =   118.6277   Anisotropy =    17.3365

     15  H    Isotropic =    27.8584   Anisotropy =     3.5486

     16  C    Isotropic =     0.9841   Anisotropy =   134.8303

     17  O    Isotropic =   198.5285   Anisotropy =    61.0253

     18  H    Isotropic =    27.7987   Anisotropy =    12.7105

     19  O    Isotropic =  -120.7235   Anisotropy =   675.9794

     20  N    Isotropic =   110.9602   Anisotropy =   155.6620

     21  H    Isotropic =    26.5437   Anisotropy =     6.9680

     22  N    Isotropic =   150.5318   Anisotropy =   106.7585

     23  H    Isotropic =    26.6995   Anisotropy =     6.6725

     24  C    Isotropic =     3.1639   Anisotropy =   130.1674

     25  C    Isotropic =   156.3063   Anisotropy =    41.1991

     26  H    Isotropic =    29.8732   Anisotropy =     7.3225

     27  H    Isotropic =    29.9342   Anisotropy =     6.6622

     28  H    Isotropic =    30.6273   Anisotropy =     5.6266

     29  C    Isotropic =   150.2858   Anisotropy =    38.5991

     30  H    Isotropic =    29.3856   Anisotropy =     8.3387

     31  H    Isotropic =    29.9283   Anisotropy =     9.0238

     32  H    Isotropic =    29.2296   Anisotropy =    10.0295

     33  O    Isotropic =  -123.8210   Anisotropy =   690.4254

 The electronic state is 1-A.
 Alpha  occ. eigenvalues --  -19.24430 -19.17827 -19.16457 -14.42978 -14.41523
 Alpha  occ. eigenvalues --  -10.34601 -10.32859 -10.30325 -10.29209 -10.26805
 Alpha  occ. eigenvalues --  -10.26303 -10.25064 -10.24595 -10.24502 -10.24201
 Alpha  occ. eigenvalues --  -10.24044 -10.23481  -1.08625  -1.05931  -1.04143
 Alpha  occ. eigenvalues --   -0.95861  -0.93472  -0.87424  -0.81661  -0.77149
 Alpha  occ. eigenvalues --   -0.76236  -0.73934  -0.71626  -0.66696  -0.63670
 Alpha  occ. eigenvalues --   -0.62239  -0.59633  -0.59408  -0.55960  -0.54833
 Alpha  occ. eigenvalues --   -0.52551  -0.50378  -0.49749  -0.47673  -0.47084
 Alpha  occ. eigenvalues --   -0.46947  -0.45588  -0.44839  -0.44255  -0.43395
 Alpha  occ. eigenvalues --   -0.42764  -0.42168  -0.41905  -0.41162  -0.40953
 Alpha  occ. eigenvalues --   -0.39696  -0.39064  -0.37662  -0.37374  -0.35830
 Alpha  occ. eigenvalues --   -0.34874  -0.34759  -0.29699  -0.27266  -0.27048
 Alpha  occ. eigenvalues --   -0.26777  -0.25419  -0.23262
 Alpha virt. eigenvalues --   -0.00755   0.00201   0.01194   0.02017   0.02497
 Alpha virt. eigenvalues --    0.02891   0.03638   0.04895   0.05416   0.06248
 Alpha virt. eigenvalues --    0.06716   0.07848   0.09266   0.09846   0.10406

 Mulliken charges:
               1
     1  C   -0.227370
     2  C   -0.278573
     3  C    0.193668
     4  C   -0.186153
     5  C   -0.159045
     6  C    0.290827
     7  H    0.112690
     8  H    0.164440
     9  H    0.147527
    10  H    0.118667
    11  C   -0.477618
    12  H    0.199898
    13  H    0.197157
    14  C   -0.058932
    15  H    0.215847
    16  C    0.233337
    17  O   -0.294151
    18  H    0.187270
    19  O   -0.369692
    20  N   -0.233908
    21  H    0.153635
    22  N   -0.125229
    23  H    0.132812
    24  C    0.277937
    25  C   -0.316489
    26  H    0.122431
    27  H    0.119105
    28  H    0.096298
    29  C   -0.182437
    30  H    0.115031
    31  H    0.084029
    32  H    0.123341
    33  O   -0.376349
 Sum of Mulliken charges =   0.00000

 Dipole moment (field-independent basis, Debye):
    X=             -1.1607    Y=             -0.0491    Z=             -6.7767  Tot=              6.8756
 Quadrupole moment (field-independent basis, Debye-Ang):
   XX=            -90.4065   YY=            -89.7784   ZZ=           -105.8635
   XY=              8.8680   XZ=              9.6535   YZ=             -5.6715

 Normal termination of Gaussian 09 at Wed Jun 25 06:31:34 2014.
