 Gaussian 09, Revision D.01,
 Gaussian 09:  EM64L-G09RevD.01 24-Apr-2013

 ----------------------------------------------------------------------
 #p nmr=(giao,mixed,spinspin) m06/cc-pvtz scf=tight integral=(grid=ultr
 afine)
 ----------------------------------------------------------------------

 ------------------
 NMR spin-spin scan
 ------------------
 Symbolic Z-matrix:
 Charge =  0 Multiplicity = 1

 SCF Done:  E(RM06) =  -801.925354023     A.U. after   16 cycles
 Normal termination of Gaussian 09 at Tue Jun 24 13:00:56 2014.

 ----------------------------------------------------------------------
 #P Geom=AllCheck Guess=TCheck SCRF=Check GenChk RM06/ChkBas NMR=ReadFC
  IOp(3/6=22)
 ----------------------------------------------------------------------

 Structure from the checkpoint file:  "/home/ztw1e12/tyrosine_scan/tyrosine_chi1_scan/Gau-20448.chk"
 ------------------
 NMR spin-spin scan
 ------------------
 Charge =  0 Multiplicity = 1

                         Standard orientation:
 ---------------------------------------------------------------------
 Center     Atomic      Atomic             Coordinates (Angstroms)
 Number     Number       Type             X           Y           Z
 ---------------------------------------------------------------------
      1          6           0       -3.382448    0.738841    0.506711
      2          6           0       -2.202840    0.576354    1.213427
      3          6           0       -1.320931   -0.458938    0.927632
      4          6           0       -1.656304   -1.332153   -0.104563
      5          6           0       -2.829086   -1.184256   -0.819816
      6          6           0       -3.696107   -0.144803   -0.513719
      7          1           0       -4.064240    1.548160    0.741404
      8          1           0       -1.961418    1.271419    2.010178
      9          1           0       -0.983907   -2.145960   -0.348892
     10          1           0       -3.087141   -1.868512   -1.618232
     11          6           0       -0.035812   -0.597839    1.691977
     12          1           0       -0.127665   -0.026763    2.617323
     13          1           0        0.134505   -1.636949    1.973342
     14          6           0        1.219982   -0.101615    0.969300
     15          1           0        1.937072    0.254202    1.712975
     16          6           0        1.932661   -1.217420    0.195224
     17          8           0       -4.840653   -0.038781   -1.244118
     18          1           0       -5.350098    0.718432   -0.934120
     19          8           0        1.493832   -2.361389    0.111461
     20          7           0        0.922227    1.021081    0.094890
     21          1           0       -0.010077    1.079073   -0.289631
     22          7           0        3.088874   -0.849624   -0.364129
     23          1           0        3.401369    0.104637   -0.233599
     24          6           0        1.777038    2.026825   -0.152398
     25          6           0        1.249538    3.154956   -0.974410
     26          1           0        1.295928    4.068014   -0.380684
     27          1           0        1.898993    3.294763   -1.837891
     28          1           0        0.227074    2.998911   -1.310996
     29          6           0        3.880831   -1.768986   -1.147677
     30          1           0        3.324133   -2.134149   -2.011601
     31          1           0        4.768864   -1.252846   -1.499941
     32          1           0        4.191057   -2.630933   -0.555831
     33          8           0        2.935409    2.026733    0.270249
 ---------------------------------------------------------------------

 SCF Done:  E(RM06) =  -801.870980609     A.U. after   10 cycles

      1  C    Isotropic =    61.7434   Anisotropy =   133.5819

      2  C    Isotropic =    39.4341   Anisotropy =   166.3212

      3  C    Isotropic =    45.9198   Anisotropy =   190.5593

      4  C    Isotropic =    36.8986   Anisotropy =   194.3972

      5  C    Isotropic =    56.9232   Anisotropy =   158.5086

      6  C    Isotropic =    15.1601   Anisotropy =   151.4066

      7  H    Isotropic =    25.3671   Anisotropy =     5.7049

      8  H    Isotropic =    24.7556   Anisotropy =     7.9242

      9  H    Isotropic =    23.6209   Anisotropy =     9.8057

     10  H    Isotropic =    24.7723   Anisotropy =     6.3391

     11  C    Isotropic =   146.3197   Anisotropy =    24.2431

     12  H    Isotropic =    29.6284   Anisotropy =     7.8334

     13  H    Isotropic =    27.9393   Anisotropy =     5.9802

     14  C    Isotropic =   127.2611   Anisotropy =    28.1904

     15  H    Isotropic =    27.3464   Anisotropy =     4.5243

     16  C    Isotropic =    -2.3890   Anisotropy =   123.3122

     17  O    Isotropic =   198.3952   Anisotropy =    61.0322

     18  H    Isotropic =    27.7441   Anisotropy =    12.8316

     19  O    Isotropic =   -90.0230   Anisotropy =   630.3554

     20  N    Isotropic =   106.1453   Anisotropy =   119.3629

     21  H    Isotropic =    26.9327   Anisotropy =    12.8427

     22  N    Isotropic =   136.7804   Anisotropy =   109.7587

     23  H    Isotropic =    24.5097   Anisotropy =    11.3511

     24  C    Isotropic =    -0.1345   Anisotropy =   137.2548

     25  C    Isotropic =   155.7338   Anisotropy =    40.8804

     26  H    Isotropic =    30.0099   Anisotropy =     7.0672

     27  H    Isotropic =    30.1039   Anisotropy =     7.2896

     28  H    Isotropic =    30.9638   Anisotropy =     4.5301

     29  C    Isotropic =   150.5703   Anisotropy =    38.2912

     30  H    Isotropic =    29.2852   Anisotropy =     9.0295

     31  H    Isotropic =    29.7513   Anisotropy =     8.7945

     32  H    Isotropic =    29.1116   Anisotropy =     9.4776

     33  O    Isotropic =   -67.1545   Anisotropy =   598.7124

 The electronic state is 1-A.
 Alpha  occ. eigenvalues --  -19.25223 -19.18703 -19.17666 -14.42887 -14.40733
 Alpha  occ. eigenvalues --  -10.35250 -10.33397 -10.31106 -10.29554 -10.26510
 Alpha  occ. eigenvalues --  -10.25208 -10.25136 -10.25054 -10.24870 -10.24869
 Alpha  occ. eigenvalues --  -10.24384 -10.24141  -1.09459  -1.06659  -1.05183
 Alpha  occ. eigenvalues --   -0.95796  -0.93347  -0.87919  -0.81372  -0.77401
 Alpha  occ. eigenvalues --   -0.76868  -0.74417  -0.71742  -0.66431  -0.64012
 Alpha  occ. eigenvalues --   -0.61638  -0.60605  -0.58693  -0.56513  -0.55092
 Alpha  occ. eigenvalues --   -0.52074  -0.50758  -0.50428  -0.47819  -0.47505
 Alpha  occ. eigenvalues --   -0.46622  -0.45780  -0.45111  -0.44137  -0.43900
 Alpha  occ. eigenvalues --   -0.43199  -0.42717  -0.42504  -0.41465  -0.41028
 Alpha  occ. eigenvalues --   -0.39805  -0.39262  -0.38404  -0.37228  -0.36246
 Alpha  occ. eigenvalues --   -0.35416  -0.35094  -0.30479  -0.28314  -0.27641
 Alpha  occ. eigenvalues --   -0.27111  -0.26065  -0.24182
 Alpha virt. eigenvalues --   -0.01644   0.00200   0.01063   0.01810   0.02583
 Alpha virt. eigenvalues --    0.03663   0.04431   0.05021   0.06187   0.07241
 Alpha virt. eigenvalues --    0.07333   0.08997   0.09330   0.10341   0.10887

 Mulliken charges:
               1
     1  C   -0.239803
     2  C   -0.286788
     3  C    0.146403
     4  C   -0.249550
     5  C   -0.168769
     6  C    0.287635
     7  H    0.120935
     8  H    0.166960
     9  H    0.201181
    10  H    0.128770
    11  C   -0.399373
    12  H    0.183338
    13  H    0.199548
    14  C   -0.096833
    15  H    0.198165
    16  C    0.304563
    17  O   -0.291581
    18  H    0.187918
    19  O   -0.398804
    20  N   -0.210524
    21  H    0.192888
    22  N   -0.193915
    23  H    0.185768
    24  C    0.307869
    25  C   -0.312253
    26  H    0.117801
    27  H    0.114974
    28  H    0.102933
    29  C   -0.181052
    30  H    0.108339
    31  H    0.091089
    32  H    0.111161
    33  O   -0.428991
 Sum of Mulliken charges =   0.00000

 Dipole moment (field-independent basis, Debye):
    X=             -1.9711    Y=              3.2871    Z=             -0.5520  Tot=              3.8723
 Quadrupole moment (field-independent basis, Debye-Ang):
   XX=            -95.2042   YY=           -103.5713   ZZ=            -97.5880
   XY=            -12.2258   XZ=             -6.0321   YZ=             -0.9786

 Normal termination of Gaussian 09 at Tue Jun 24 18:09:00 2014.
