 Gaussian 09, Revision D.01,
 Gaussian 09:  EM64L-G09RevD.01 24-Apr-2013

 ----------------------------------------------------------------------
 #p nmr=(giao,mixed,spinspin) m06/cc-pvtz scf=tight integral=(grid=ultr
 afine)
 ----------------------------------------------------------------------

 ------------------
 NMR spin-spin scan
 ------------------
 Symbolic Z-matrix:
 Charge =  0 Multiplicity = 1

 SCF Done:  E(RM06) =  -801.925835169     A.U. after   15 cycles
 Normal termination of Gaussian 09 at Wed Jun 25 03:19:26 2014.

 ----------------------------------------------------------------------
 #P Geom=AllCheck Guess=TCheck SCRF=Check GenChk RM06/ChkBas NMR=ReadFC
  IOp(3/6=22)
 ----------------------------------------------------------------------

 Structure from the checkpoint file:  "/home/ztw1e12/tyrosine_scan/tyrosine_chi1_scan/Gau-10367.chk"
 ------------------
 NMR spin-spin scan
 ------------------
 Charge =  0 Multiplicity = 1

                         Standard orientation:
 ---------------------------------------------------------------------
 Center     Atomic      Atomic             Coordinates (Angstroms)
 Number     Number       Type             X           Y           Z
 ---------------------------------------------------------------------
      1          6           0       -3.296974    0.938663    0.305849
      2          6           0       -2.129840    0.830648    1.043425
      3          6           0       -1.318456   -0.295685    0.963219
      4          6           0       -1.717090   -1.322623    0.109965
      5          6           0       -2.879144   -1.231337   -0.631279
      6          6           0       -3.672334   -0.096619   -0.534855
      7          1           0       -3.922188    1.820876    0.381582
      8          1           0       -1.844915    1.641626    1.705036
      9          1           0       -1.106222   -2.213462    0.031819
     10          1           0       -3.188038   -2.035615   -1.287007
     11          6           0       -0.049484   -0.375890    1.763869
     12          1           0       -0.115589    0.339303    2.586145
     13          1           0        0.066112   -1.364558    2.207598
     14          6           0        1.231520   -0.062106    0.991420
     15          1           0        2.009274    0.213342    1.709792
     16          6           0        1.787356   -1.279955    0.244825
     17          8           0       -4.810427   -0.054256   -1.281850
     18          1           0       -5.274824    0.773380   -1.113080
     19          8           0        1.324046   -2.408884    0.383809
     20          7           0        1.032710    1.082012    0.118353
     21          1           0        0.092305    1.256115   -0.207214
     22          7           0        2.848132   -1.032729   -0.529369
     23          1           0        3.244164   -0.101794   -0.519555
     24          6           0        1.985206    1.979887   -0.181776
     25          6           0        1.547864    3.172061   -0.965282
     26          1           0        1.766027    4.067359   -0.383001
     27          1           0        2.136593    3.227414   -1.880472
     28          1           0        0.489434    3.156644   -1.215385
     29          6           0        3.513803   -2.088392   -1.256803
     30          1           0        2.820534   -2.597896   -1.925882
     31          1           0        4.313218   -1.655060   -1.850175
     32          1           0        3.942230   -2.831126   -0.581758
     33          8           0        3.160310    1.831459    0.160942
 ---------------------------------------------------------------------

 SCF Done:  E(RM06) =  -801.871465422     A.U. after   10 cycles

      1  C    Isotropic =    62.0760   Anisotropy =   133.2191

      2  C    Isotropic =    40.4325   Anisotropy =   164.8855

      3  C    Isotropic =    45.8377   Anisotropy =   190.2014

      4  C    Isotropic =    36.1349   Anisotropy =   194.7633

      5  C    Isotropic =    56.4680   Anisotropy =   159.0200

      6  C    Isotropic =    15.0789   Anisotropy =   151.4581

      7  H    Isotropic =    25.3778   Anisotropy =     5.8036

      8  H    Isotropic =    24.7760   Anisotropy =     7.9057

      9  H    Isotropic =    23.5709   Anisotropy =     9.9215

     10  H    Isotropic =    24.7791   Anisotropy =     6.4098

     11  C    Isotropic =   145.3234   Anisotropy =    22.3989

     12  H    Isotropic =    29.7490   Anisotropy =     7.5927

     13  H    Isotropic =    27.8945   Anisotropy =     6.1773

     14  C    Isotropic =   125.8563   Anisotropy =    27.8244

     15  H    Isotropic =    27.4397   Anisotropy =     4.3563

     16  C    Isotropic =    -1.9270   Anisotropy =   122.6848

     17  O    Isotropic =   198.3904   Anisotropy =    60.8537

     18  H    Isotropic =    27.7546   Anisotropy =    12.8280

     19  O    Isotropic =   -93.0995   Anisotropy =   633.4365

     20  N    Isotropic =   106.5167   Anisotropy =   118.3602

     21  H    Isotropic =    26.5486   Anisotropy =    12.5553

     22  N    Isotropic =   136.7038   Anisotropy =   110.6929

     23  H    Isotropic =    24.7343   Anisotropy =    11.5070

     24  C    Isotropic =    -0.6196   Anisotropy =   137.4779

     25  C    Isotropic =   155.7018   Anisotropy =    40.8978

     26  H    Isotropic =    29.9319   Anisotropy =     7.1109

     27  H    Isotropic =    30.0435   Anisotropy =     7.1648

     28  H    Isotropic =    30.7988   Anisotropy =     4.7488

     29  C    Isotropic =   150.5056   Anisotropy =    38.1126

     30  H    Isotropic =    29.1933   Anisotropy =     8.8217

     31  H    Isotropic =    29.7789   Anisotropy =     8.8086

     32  H    Isotropic =    29.1887   Anisotropy =     9.7245

     33  O    Isotropic =   -69.7996   Anisotropy =   602.2674

 The electronic state is 1-A.
 Alpha  occ. eigenvalues --  -19.25194 -19.18727 -19.17615 -14.42898 -14.40761
 Alpha  occ. eigenvalues --  -10.35301 -10.33454 -10.31070 -10.29621 -10.26495
 Alpha  occ. eigenvalues --  -10.25243 -10.25220 -10.25076 -10.24953 -10.24862
 Alpha  occ. eigenvalues --  -10.24302 -10.24076  -1.09421  -1.06697  -1.05198
 Alpha  occ. eigenvalues --   -0.95866  -0.93331  -0.87883  -0.81436  -0.77407
 Alpha  occ. eigenvalues --   -0.76848  -0.74418  -0.71767  -0.66450  -0.64036
 Alpha  occ. eigenvalues --   -0.61551  -0.60748  -0.58757  -0.56491  -0.55161
 Alpha  occ. eigenvalues --   -0.52123  -0.50788  -0.50390  -0.47895  -0.47467
 Alpha  occ. eigenvalues --   -0.46702  -0.45656  -0.45100  -0.44126  -0.43928
 Alpha  occ. eigenvalues --   -0.43207  -0.42797  -0.42430  -0.41489  -0.41109
 Alpha  occ. eigenvalues --   -0.39862  -0.39081  -0.38503  -0.37474  -0.36012
 Alpha  occ. eigenvalues --   -0.35390  -0.35141  -0.30557  -0.28388  -0.27612
 Alpha  occ. eigenvalues --   -0.27123  -0.26011  -0.24148
 Alpha virt. eigenvalues --   -0.01647   0.00146   0.01064   0.01788   0.02476
 Alpha virt. eigenvalues --    0.03457   0.04767   0.04971   0.06220   0.07196
 Alpha virt. eigenvalues --    0.07524   0.09044   0.09213   0.10309   0.10899

 Mulliken charges:
               1
     1  C   -0.242114
     2  C   -0.306774
     3  C    0.140930
     4  C   -0.225704
     5  C   -0.171409
     6  C    0.289803
     7  H    0.120640
     8  H    0.174352
     9  H    0.200008
    10  H    0.127462
    11  C   -0.393612
    12  H    0.187537
    13  H    0.195679
    14  C   -0.093734
    15  H    0.196415
    16  C    0.302084
    17  O   -0.291565
    18  H    0.187701
    19  O   -0.399908
    20  N   -0.216255
    21  H    0.193027
    22  N   -0.188706
    23  H    0.185126
    24  C    0.303942
    25  C   -0.314911
    26  H    0.118558
    27  H    0.115089
    28  H    0.102810
    29  C   -0.181748
    30  H    0.112698
    31  H    0.090499
    32  H    0.108705
    33  O   -0.426624
 Sum of Mulliken charges =   0.00000

 Dipole moment (field-independent basis, Debye):
    X=             -1.9602    Y=              3.5941    Z=             -1.0417  Tot=              4.2243
 Quadrupole moment (field-independent basis, Debye-Ang):
   XX=            -98.8217   YY=           -100.4952   ZZ=            -97.8235
   XY=            -12.3131   XZ=             -5.0471   YZ=              0.2926

 Normal termination of Gaussian 09 at Wed Jun 25 08:24:02 2014.
