 Gaussian 09, Revision D.01,
 Gaussian 09:  EM64L-G09RevD.01 24-Apr-2013

 ----------------------------------------------------------------------
 #p nmr=(giao,mixed,spinspin) m06/cc-pvtz scf=tight integral=(grid=ultr
 afine)
 ----------------------------------------------------------------------

 ------------------
 NMR spin-spin scan
 ------------------
 Symbolic Z-matrix:
 Charge =  0 Multiplicity = 1

 SCF Done:  E(RM06) =  -801.913414804     A.U. after   16 cycles
 Normal termination of Gaussian 09 at Wed Jun 25 01:20:09 2014.

 ----------------------------------------------------------------------
 #P Geom=AllCheck Guess=TCheck SCRF=Check GenChk RM06/ChkBas NMR=ReadFC
  IOp(3/6=22)
 ----------------------------------------------------------------------

 Structure from the checkpoint file:  "/home/ztw1e12/tyrosine_scan/tyrosine_chi1_scan/Gau-24507.chk"
 ------------------
 NMR spin-spin scan
 ------------------
 Charge =  0 Multiplicity = 1

                         Standard orientation:
 ---------------------------------------------------------------------
 Center     Atomic      Atomic             Coordinates (Angstroms)
 Number     Number       Type             X           Y           Z
 ---------------------------------------------------------------------
      1          6           0        3.374304    0.750300   -0.497737
      2          6           0        2.081460    0.583378   -0.963873
      3          6           0        1.373766   -0.586262   -0.722079
      4          6           0        1.997363   -1.592822    0.007358
      5          6           0        3.286944   -1.443106    0.479545
      6          6           0        3.977360   -0.265894    0.226412
      7          1           0        3.921931    1.665454   -0.691160
      8          1           0        1.609344    1.382443   -1.526325
      9          1           0        1.459503   -2.513463    0.207390
     10          1           0        3.772122   -2.229754    1.043280
     11          6           0       -0.038613   -0.746884   -1.190280
     12          1           0       -0.251740   -0.071939   -2.023632
     13          1           0       -0.192339   -1.767499   -1.552856
     14          6           0       -1.061147   -0.509529   -0.077684
     15          1           0       -0.766500   -1.085965    0.805098
     16          6           0       -1.025780    0.944330    0.364120
     17          8           0        5.247180   -0.158632    0.709252
     18          1           0        5.607448    0.702323    0.468442
     19          8           0       -0.360891    1.278841    1.342896
     20          7           0       -2.362029   -0.956247   -0.522312
     21          1           0       -2.449694   -1.362135   -1.441843
     22          7           0       -1.682614    1.822292   -0.396341
     23          1           0       -2.198428    1.486091   -1.193707
     24          6           0       -3.420216   -0.966716    0.309569
     25          6           0       -4.686907   -1.546483   -0.224977
     26          1           0       -4.981633   -2.382486    0.409183
     27          1           0       -5.473612   -0.795216   -0.160239
     28          1           0       -4.601462   -1.890688   -1.253241
     29          6           0       -1.633459    3.241090   -0.128563
     30          1           0       -0.611615    3.617925   -0.195292
     31          1           0       -2.245325    3.758970   -0.860777
     32          1           0       -2.015825    3.464897    0.867496
     33          8           0       -3.338804   -0.521420    1.452586
 ---------------------------------------------------------------------

 SCF Done:  E(RM06) =  -801.859129119     A.U. after   10 cycles

      1  C    Isotropic =    60.6383   Anisotropy =   135.5655

      2  C    Isotropic =    40.3260   Anisotropy =   170.5738

      3  C    Isotropic =    46.1773   Anisotropy =   187.8594

      4  C    Isotropic =    40.4760   Anisotropy =   178.1769

      5  C    Isotropic =    57.9596   Anisotropy =   157.4084

      6  C    Isotropic =    15.0562   Anisotropy =   151.4014

      7  H    Isotropic =    25.4630   Anisotropy =     6.2262

      8  H    Isotropic =    24.9413   Anisotropy =     8.3277

      9  H    Isotropic =    24.5314   Anisotropy =     8.9616

     10  H    Isotropic =    24.8544   Anisotropy =     5.8303

     11  C    Isotropic =   136.2664   Anisotropy =    30.2189

     12  H    Isotropic =    29.6109   Anisotropy =     3.1404

     13  H    Isotropic =    29.2931   Anisotropy =     5.0829

     14  C    Isotropic =   116.5428   Anisotropy =    18.2724

     15  H    Isotropic =    28.0233   Anisotropy =     3.8234

     16  C    Isotropic =     0.6481   Anisotropy =   133.5433

     17  O    Isotropic =   198.3290   Anisotropy =    61.8257

     18  H    Isotropic =    27.7717   Anisotropy =    12.6958

     19  O    Isotropic =  -125.0925   Anisotropy =   679.1430

     20  N    Isotropic =   110.9207   Anisotropy =   154.7176

     21  H    Isotropic =    26.4747   Anisotropy =     6.7688

     22  N    Isotropic =   152.4293   Anisotropy =   103.9211

     23  H    Isotropic =    26.8321   Anisotropy =     6.7902

     24  C    Isotropic =     3.3044   Anisotropy =   130.0996

     25  C    Isotropic =   156.4298   Anisotropy =    41.0245

     26  H    Isotropic =    29.8760   Anisotropy =     7.2433

     27  H    Isotropic =    29.9421   Anisotropy =     6.7292

     28  H    Isotropic =    30.6402   Anisotropy =     5.6546

     29  C    Isotropic =   150.1624   Anisotropy =    38.6370

     30  H    Isotropic =    29.1983   Anisotropy =     9.0528

     31  H    Isotropic =    29.8204   Anisotropy =     8.9413

     32  H    Isotropic =    29.0514   Anisotropy =     9.6454

     33  O    Isotropic =  -123.5882   Anisotropy =   689.1200

 The electronic state is 1-A.
 Alpha  occ. eigenvalues --  -19.24450 -19.17712 -19.16560 -14.42906 -14.41631
 Alpha  occ. eigenvalues --  -10.34500 -10.32978 -10.30352 -10.29123 -10.26940
 Alpha  occ. eigenvalues --  -10.26286 -10.24985 -10.24656 -10.24493 -10.24361
 Alpha  occ. eigenvalues --  -10.24027 -10.23589  -1.08659  -1.05846  -1.04216
 Alpha  occ. eigenvalues --   -0.95744  -0.93613  -0.87483  -0.81682  -0.77118
 Alpha  occ. eigenvalues --   -0.76298  -0.74033  -0.71653  -0.66688  -0.63782
 Alpha  occ. eigenvalues --   -0.62110  -0.59777  -0.59474  -0.55999  -0.54799
 Alpha  occ. eigenvalues --   -0.52453  -0.50614  -0.49664  -0.47905  -0.47114
 Alpha  occ. eigenvalues --   -0.46749  -0.45645  -0.44941  -0.44036  -0.43415
 Alpha  occ. eigenvalues --   -0.42798  -0.42198  -0.41958  -0.41144  -0.40996
 Alpha  occ. eigenvalues --   -0.39721  -0.39269  -0.37742  -0.37191  -0.36004
 Alpha  occ. eigenvalues --   -0.34967  -0.34783  -0.29483  -0.27204  -0.27137
 Alpha  occ. eigenvalues --   -0.26745  -0.25614  -0.23298
 Alpha virt. eigenvalues --   -0.00806   0.00148   0.01383   0.02038   0.02531
 Alpha virt. eigenvalues --    0.02910   0.03494   0.04741   0.05588   0.05942
 Alpha virt. eigenvalues --    0.06670   0.07875   0.09148   0.09798   0.10448

 Mulliken charges:
               1
     1  C   -0.227405
     2  C   -0.243450
     3  C    0.188542
     4  C   -0.211019
     5  C   -0.164063
     6  C    0.287667
     7  H    0.109654
     8  H    0.158923
     9  H    0.146919
    10  H    0.120080
    11  C   -0.486438
    12  H    0.215289
    13  H    0.193682
    14  C   -0.068588
    15  H    0.223589
    16  C    0.244235
    17  O   -0.295360
    18  H    0.188287
    19  O   -0.369751
    20  N   -0.226505
    21  H    0.151865
    22  N   -0.129913
    23  H    0.128319
    24  C    0.282380
    25  C   -0.315956
    26  H    0.122108
    27  H    0.118823
    28  H    0.095725
    29  C   -0.176773
    30  H    0.109687
    31  H    0.084194
    32  H    0.123622
    33  O   -0.378369
 Sum of Mulliken charges =   0.00000

 Dipole moment (field-independent basis, Debye):
    X=             -1.2610    Y=              0.0309    Z=             -6.5071  Tot=              6.6283
 Quadrupole moment (field-independent basis, Debye-Ang):
   XX=            -89.2547   YY=            -88.2494   ZZ=           -107.3166
   XY=              8.9738   XZ=             11.8273   YZ=             -3.6377

 Normal termination of Gaussian 09 at Wed Jun 25 06:16:33 2014.
