 Gaussian 09, Revision D.01,
 Gaussian 09:  EM64L-G09RevD.01 24-Apr-2013

 ----------------------------------------------------------------------
 #p nmr=(giao,mixed,spinspin) m06/cc-pvtz scf=tight integral=(grid=ultr
 afine)
 ----------------------------------------------------------------------

 ------------------
 NMR spin-spin scan
 ------------------
 Symbolic Z-matrix:
 Charge =  0 Multiplicity = 1

 SCF Done:  E(RM06) =  -801.918278323     A.U. after   15 cycles
 Normal termination of Gaussian 09 at Wed Jun 25 01:59:05 2014.

 ----------------------------------------------------------------------
 #P Geom=AllCheck Guess=TCheck SCRF=Check GenChk RM06/ChkBas NMR=ReadFC
  IOp(3/6=22)
 ----------------------------------------------------------------------

 Structure from the checkpoint file:  "/home/ztw1e12/tyrosine_scan/tyrosine_chi1_scan/Gau-25438.chk"
 ------------------
 NMR spin-spin scan
 ------------------
 Charge =  0 Multiplicity = 1

                         Standard orientation:
 ---------------------------------------------------------------------
 Center     Atomic      Atomic             Coordinates (Angstroms)
 Number     Number       Type             X           Y           Z
 ---------------------------------------------------------------------
      1          6           0        2.559187   -1.613331   -0.418451
      2          6           0        1.400615   -1.576103    0.337621
      3          6           0        1.078572   -0.470862    1.117057
      4          6           0        1.969312    0.598284    1.130169
      5          6           0        3.131538    0.577033    0.382324
      6          6           0        3.425188   -0.530787   -0.399001
      7          1           0        2.802786   -2.482598   -1.018336
      8          1           0        0.738172   -2.435222    0.327240
      9          1           0        1.745858    1.467896    1.737919
     10          1           0        3.823216    1.409751    0.399534
     11          6           0       -0.214173   -0.402905    1.874415
     12          1           0       -0.493225   -1.382625    2.267217
     13          1           0       -0.094776    0.265040    2.728714
     14          6           0       -1.400130    0.126904    1.051816
     15          1           0       -2.165562    0.477034    1.749413
     16          6           0       -0.977971    1.361544    0.278356
     17          8           0        4.581040   -0.512182   -1.119246
     18          1           0        4.669172   -1.343068   -1.599600
     19          8           0       -0.824557    2.422785    0.882600
     20          7           0       -1.977856   -0.925403    0.244602
     21          1           0       -1.492426   -1.806045    0.164479
     22          7           0       -0.745268    1.229544   -1.026702
     23          1           0       -0.846850    0.317612   -1.443519
     24          6           0       -3.206727   -0.811274   -0.298322
     25          6           0       -3.718582   -2.004333   -1.034581
     26          1           0       -4.630778   -2.350113   -0.548555
     27          1           0       -3.982436   -1.706086   -2.048770
     28          1           0       -3.001870   -2.821578   -1.074574
     29          6           0       -0.203049    2.317479   -1.807789
     30          1           0        0.787949    2.602538   -1.448007
     31          1           0       -0.123425    2.002850   -2.843833
     32          1           0       -0.850731    3.192403   -1.757349
     33          8           0       -3.867221    0.218562   -0.188224
 ---------------------------------------------------------------------

 SCF Done:  E(RM06) =  -801.863956760     A.U. after   10 cycles

      1  C    Isotropic =    61.5152   Anisotropy =   134.6038

      2  C    Isotropic =    44.1367   Anisotropy =   164.3632

      3  C    Isotropic =    44.2107   Anisotropy =   195.1019

      4  C    Isotropic =    37.3407   Anisotropy =   183.1880

      5  C    Isotropic =    57.2276   Anisotropy =   159.1882

      6  C    Isotropic =    15.1852   Anisotropy =   152.0870

      7  H    Isotropic =    25.4064   Anisotropy =     5.9432

      8  H    Isotropic =    24.9024   Anisotropy =     8.1057

      9  H    Isotropic =    24.3647   Anisotropy =     7.8901

     10  H    Isotropic =    24.8463   Anisotropy =     5.8169

     11  C    Isotropic =   139.3038   Anisotropy =    10.9735

     12  H    Isotropic =    29.6856   Anisotropy =     6.0341

     13  H    Isotropic =    28.4816   Anisotropy =     6.9227

     14  C    Isotropic =   121.1247   Anisotropy =    29.3572

     15  H    Isotropic =    27.5464   Anisotropy =     4.7396

     16  C    Isotropic =     1.0790   Anisotropy =   136.7721

     17  O    Isotropic =   198.3503   Anisotropy =    60.7205

     18  H    Isotropic =    27.7831   Anisotropy =    12.8543

     19  O    Isotropic =   -86.6716   Anisotropy =   651.5427

     20  N    Isotropic =   112.3363   Anisotropy =   144.6078

     21  H    Isotropic =    26.2276   Anisotropy =     7.5301

     22  N    Isotropic =   142.1999   Anisotropy =   101.7549

     23  H    Isotropic =    27.1828   Anisotropy =     5.4323

     24  C    Isotropic =     3.0587   Anisotropy =   129.9093

     25  C    Isotropic =   155.9800   Anisotropy =    41.3914

     26  H    Isotropic =    29.8381   Anisotropy =     7.4332

     27  H    Isotropic =    29.9548   Anisotropy =     6.6368

     28  H    Isotropic =    30.5955   Anisotropy =     5.2069

     29  C    Isotropic =   150.5930   Anisotropy =    38.6435

     30  H    Isotropic =    29.8955   Anisotropy =     7.3813

     31  H    Isotropic =    30.3636   Anisotropy =     8.8839

     32  H    Isotropic =    29.2644   Anisotropy =    10.4125

     33  O    Isotropic =  -116.7134   Anisotropy =   689.9328

 The electronic state is 1-A.
 Alpha  occ. eigenvalues --  -19.25509 -19.17893 -19.16797 -14.42968 -14.41449
 Alpha  occ. eigenvalues --  -10.34680 -10.33096 -10.31447 -10.29231 -10.26642
 Alpha  occ. eigenvalues --  -10.25971 -10.25822 -10.25474 -10.25312 -10.25153
 Alpha  occ. eigenvalues --  -10.24936 -10.24522  -1.09755  -1.05982  -1.04508
 Alpha  occ. eigenvalues --   -0.95847  -0.93475  -0.88385  -0.81809  -0.77485
 Alpha  occ. eigenvalues --   -0.77353  -0.74259  -0.71943  -0.66828  -0.64682
 Alpha  occ. eigenvalues --   -0.62069  -0.60699  -0.59272  -0.56948  -0.55214
 Alpha  occ. eigenvalues --   -0.52683  -0.50729  -0.49837  -0.48685  -0.47154
 Alpha  occ. eigenvalues --   -0.47041  -0.46179  -0.44606  -0.44474  -0.44280
 Alpha  occ. eigenvalues --   -0.43666  -0.42883  -0.41961  -0.41377  -0.41320
 Alpha  occ. eigenvalues --   -0.39980  -0.39061  -0.38457  -0.37923  -0.35904
 Alpha  occ. eigenvalues --   -0.35734  -0.35221  -0.29982  -0.28019  -0.27420
 Alpha  occ. eigenvalues --   -0.27027  -0.25714  -0.24422
 Alpha virt. eigenvalues --   -0.02061  -0.00303   0.00461   0.01684   0.01981
 Alpha virt. eigenvalues --    0.03077   0.03598   0.04762   0.05989   0.06481
 Alpha virt. eigenvalues --    0.06980   0.08153   0.09137   0.09991   0.10771

 Mulliken charges:
               1
     1  C   -0.247088
     2  C   -0.295980
     3  C    0.165937
     4  C   -0.217209
     5  C   -0.181646
     6  C    0.297670
     7  H    0.117649
     8  H    0.171883
     9  H    0.186140
    10  H    0.135825
    11  C   -0.396298
    12  H    0.191727
    13  H    0.180526
    14  C   -0.060168
    15  H    0.197315
    16  C    0.235462
    17  O   -0.290451
    18  H    0.187889
    19  O   -0.392442
    20  N   -0.251664
    21  H    0.175060
    22  N   -0.108503
    23  H    0.141286
    24  C    0.272161
    25  C   -0.318632
    26  H    0.123003
    27  H    0.119088
    28  H    0.096947
    29  C   -0.188090
    30  H    0.118743
    31  H    0.087241
    32  H    0.126206
    33  O   -0.379586
 Sum of Mulliken charges =   0.00000

 Dipole moment (field-independent basis, Debye):
    X=              2.4912    Y=             -6.2054    Z=             -2.7142  Tot=              7.2166
 Quadrupole moment (field-independent basis, Debye-Ang):
   XX=           -111.6340   YY=            -97.9820   ZZ=            -93.5050
   XY=              7.6482   XZ=             -1.7978   YZ=             -0.3805

 Normal termination of Gaussian 09 at Wed Jun 25 07:30:00 2014.
