 Gaussian 09, Revision D.01,
 Gaussian 09:  EM64L-G09RevD.01 24-Apr-2013

 ----------------------------------------------------------------------
 #p nmr=(giao,mixed,spinspin) m06/cc-pvtz scf=tight integral=(grid=ultr
 afine)
 ----------------------------------------------------------------------

 ------------------
 NMR spin-spin scan
 ------------------
 Symbolic Z-matrix:
 Charge =  0 Multiplicity = 1

 SCF Done:  E(RM06) =  -801.908588689     A.U. after   16 cycles
 Normal termination of Gaussian 09 at Wed Jun 25 01:56:35 2014.

 ----------------------------------------------------------------------
 #P Geom=AllCheck Guess=TCheck SCRF=Check GenChk RM06/ChkBas NMR=ReadFC
  IOp(3/6=22)
 ----------------------------------------------------------------------

 Structure from the checkpoint file:  "/home/ztw1e12/tyrosine_scan/tyrosine_chi1_scan/Gau-27300.chk"
 ------------------
 NMR spin-spin scan
 ------------------
 Charge =  0 Multiplicity = 1

                         Standard orientation:
 ---------------------------------------------------------------------
 Center     Atomic      Atomic             Coordinates (Angstroms)
 Number     Number       Type             X           Y           Z
 ---------------------------------------------------------------------
      1          6           0        2.721890    0.142335   -1.338380
      2          6           0        1.476700   -0.446101   -1.206578
      3          6           0        1.140939   -1.182754   -0.076532
      4          6           0        2.098548   -1.323681    0.920176
      5          6           0        3.348774   -0.744563    0.805076
      6          6           0        3.659465   -0.004991   -0.326131
      7          1           0        2.977310    0.712888   -2.224123
      8          1           0        0.745374   -0.329590   -2.000304
      9          1           0        1.854570   -1.892476    1.810572
     10          1           0        4.091981   -0.856606    1.584254
     11          6           0       -0.231219   -1.766405    0.074886
     12          1           0       -0.538832   -2.206841   -0.876523
     13          1           0       -0.198219   -2.582121    0.796706
     14          6           0       -1.343842   -0.774701    0.515075
     15          1           0       -1.764725   -1.114864    1.463315
     16          6           0       -0.768426    0.595067    0.825719
     17          8           0        4.900615    0.551630   -0.401420
     18          1           0        4.981108    1.037915   -1.229693
     19          8           0       -0.197434    0.780900    1.898958
     20          7           0       -2.408828   -0.752430   -0.463064
     21          1           0       -2.234772   -1.129070   -1.382628
     22          7           0       -0.870156    1.538145   -0.112236
     23          1           0       -1.278371    1.287516   -0.999139
     24          6           0       -3.622366   -0.237824   -0.184031
     25          6           0       -4.632504   -0.286149   -1.281287
     26          1           0       -5.527848   -0.786437   -0.913863
     27          1           0       -4.913659    0.734597   -1.541019
     28          1           0       -4.274213   -0.795901   -2.172668
     29          6           0       -0.133656    2.776443   -0.003575
     30          1           0        0.942452    2.588577    0.041961
     31          1           0       -0.348213    3.393981   -0.870591
     32          1           0       -0.423676    3.322767    0.893289
     33          8           0       -3.881081    0.246921    0.915092
 ---------------------------------------------------------------------

 SCF Done:  E(RM06) =  -801.854294320     A.U. after   10 cycles

      1  C    Isotropic =    62.5385   Anisotropy =   133.2025

      2  C    Isotropic =    42.7555   Anisotropy =   168.7940

      3  C    Isotropic =    45.5949   Anisotropy =   191.4108

      4  C    Isotropic =    35.3968   Anisotropy =   180.3078

      5  C    Isotropic =    58.1366   Anisotropy =   157.3033

      6  C    Isotropic =    15.3865   Anisotropy =   151.6794

      7  H    Isotropic =    25.5293   Anisotropy =     5.9822

      8  H    Isotropic =    25.0776   Anisotropy =     7.8873

      9  H    Isotropic =    24.4618   Anisotropy =     7.9664

     10  H    Isotropic =    24.9151   Anisotropy =     5.4555

     11  C    Isotropic =   137.0333   Anisotropy =    27.4452

     12  H    Isotropic =    29.9155   Anisotropy =     4.6667

     13  H    Isotropic =    28.4518   Anisotropy =     6.7669

     14  C    Isotropic =   123.0358   Anisotropy =    30.1547

     15  H    Isotropic =    27.3596   Anisotropy =     4.3168

     16  C    Isotropic =     0.1963   Anisotropy =   139.2633

     17  O    Isotropic =   198.3407   Anisotropy =    61.5881

     18  H    Isotropic =    27.8294   Anisotropy =    12.4720

     19  O    Isotropic =  -104.0296   Anisotropy =   668.4630

     20  N    Isotropic =   104.4431   Anisotropy =   163.2478

     21  H    Isotropic =    26.6080   Anisotropy =     6.9025

     22  N    Isotropic =   141.6866   Anisotropy =   106.6948

     23  H    Isotropic =    26.6579   Anisotropy =     6.0435

     24  C    Isotropic =     3.1054   Anisotropy =   130.2172

     25  C    Isotropic =   155.9311   Anisotropy =    41.5790

     26  H    Isotropic =    29.8482   Anisotropy =     7.5002

     27  H    Isotropic =    29.8975   Anisotropy =     6.4129

     28  H    Isotropic =    30.6008   Anisotropy =     5.3959

     29  C    Isotropic =   150.4246   Anisotropy =    38.0514

     30  H    Isotropic =    30.2314   Anisotropy =     7.2642

     31  H    Isotropic =    30.1594   Anisotropy =     8.9673

     32  H    Isotropic =    29.2843   Anisotropy =    10.2965

     33  O    Isotropic =  -121.6133   Anisotropy =   690.4743

 The electronic state is 1-A.
 Alpha  occ. eigenvalues --  -19.24915 -19.17881 -19.16810 -14.43082 -14.41658
 Alpha  occ. eigenvalues --  -10.34669 -10.33078 -10.30823 -10.29325 -10.26811
 Alpha  occ. eigenvalues --  -10.26260 -10.25181 -10.25147 -10.24883 -10.24680
 Alpha  occ. eigenvalues --  -10.24493 -10.23806  -1.09141  -1.05980  -1.04507
 Alpha  occ. eigenvalues --   -0.95943  -0.93633  -0.87812  -0.81503  -0.77356
 Alpha  occ. eigenvalues --   -0.76727  -0.74015  -0.71882  -0.66872  -0.64155
 Alpha  occ. eigenvalues --   -0.62328  -0.60152  -0.59423  -0.56331  -0.55347
 Alpha  occ. eigenvalues --   -0.52394  -0.50428  -0.49861  -0.48156  -0.47317
 Alpha  occ. eigenvalues --   -0.46939  -0.45586  -0.45104  -0.44178  -0.43945
 Alpha  occ. eigenvalues --   -0.43208  -0.42525  -0.41893  -0.41392  -0.41082
 Alpha  occ. eigenvalues --   -0.39953  -0.39294  -0.38020  -0.37358  -0.35493
 Alpha  occ. eigenvalues --   -0.35360  -0.35086  -0.30059  -0.27972  -0.27278
 Alpha  occ. eigenvalues --   -0.26618  -0.25579  -0.23797
 Alpha virt. eigenvalues --   -0.01249  -0.00532   0.00497   0.01855   0.01979
 Alpha virt. eigenvalues --    0.02970   0.03983   0.04434   0.05472   0.06610
 Alpha virt. eigenvalues --    0.06915   0.07891   0.09006   0.09715   0.10519

 Mulliken charges:
               1
     1  C   -0.269729
     2  C   -0.347466
     3  C    0.239581
     4  C   -0.176134
     5  C   -0.149553
     6  C    0.297222
     7  H    0.129598
     8  H    0.183084
     9  H    0.142973
    10  H    0.121065
    11  C   -0.482572
    12  H    0.213276
    13  H    0.184980
    14  C   -0.047619
    15  H    0.201266
    16  C    0.248954
    17  O   -0.292258
    18  H    0.187305
    19  O   -0.378882
    20  N   -0.237527
    21  H    0.157692
    22  N   -0.117900
    23  H    0.134384
    24  C    0.277158
    25  C   -0.317842
    26  H    0.123856
    27  H    0.119876
    28  H    0.097705
    29  C   -0.210365
    30  H    0.123632
    31  H    0.090816
    32  H    0.133071
    33  O   -0.379646
 Sum of Mulliken charges =   0.00000

 Dipole moment (field-independent basis, Debye):
    X=              0.2681    Y=             -0.7815    Z=             -7.0196  Tot=              7.0681
 Quadrupole moment (field-independent basis, Debye-Ang):
   XX=           -103.6986   YY=            -93.3918   ZZ=           -100.1394
   XY=              8.3382   XZ=              8.1276   YZ=             -8.3395

 Normal termination of Gaussian 09 at Wed Jun 25 07:15:55 2014.
