 Gaussian 09, Revision D.01,
 Gaussian 09:  EM64L-G09RevD.01 24-Apr-2013

 ----------------------------------------------------------------------
 #p nmr=(giao,mixed,spinspin) m06/cc-pvtz scf=tight integral=(grid=ultr
 afine)
 ----------------------------------------------------------------------

 ------------------
 NMR spin-spin scan
 ------------------
 Symbolic Z-matrix:
 Charge =  0 Multiplicity = 1

 SCF Done:  E(RM06) =  -801.922082966     A.U. after   16 cycles
 Normal termination of Gaussian 09 at Wed Jun 25 01:48:28 2014.

 ----------------------------------------------------------------------
 #P Geom=AllCheck Guess=TCheck SCRF=Check GenChk RM06/ChkBas NMR=ReadFC
  IOp(3/6=22)
 ----------------------------------------------------------------------

 Structure from the checkpoint file:  "/home/ztw1e12/tyrosine_scan/tyrosine_chi1_scan/Gau-16295.chk"
 ------------------
 NMR spin-spin scan
 ------------------
 Charge =  0 Multiplicity = 1

                         Standard orientation:
 ---------------------------------------------------------------------
 Center     Atomic      Atomic             Coordinates (Angstroms)
 Number     Number       Type             X           Y           Z
 ---------------------------------------------------------------------
      1          6           0       -3.249601    0.088000    1.149200
      2          6           0       -1.965798   -0.399225    1.307978
      3          6           0       -1.306082   -1.053420    0.272967
      4          6           0       -1.974683   -1.205074   -0.935091
      5          6           0       -3.260785   -0.724248   -1.111365
      6          6           0       -3.900035   -0.076630   -0.066176
      7          1           0       -3.757885    0.593383    1.962540
      8          1           0       -1.460380   -0.269492    2.259366
      9          1           0       -1.478380   -1.711899   -1.755421
     10          1           0       -3.780516   -0.848451   -2.052910
     11          6           0        0.095639   -1.548657    0.452348
     12          1           0        0.198998   -2.093941    1.391951
     13          1           0        0.318886   -2.258688   -0.346677
     14          6           0        1.168186   -0.456779    0.432656
     15          1           0        1.301469   -0.077821    1.450369
     16          6           0        2.529274   -0.997179   -0.012445
     17          8           0       -5.167563    0.376538   -0.279479
     18          1           0       -5.501535    0.787934    0.525640
     19          8           0        2.672963   -2.102682   -0.526910
     20          7           0        0.773092    0.695810   -0.359743
     21          1           0        0.124096    0.550506   -1.118954
     22          7           0        3.550558   -0.164766    0.208087
     23          1           0        3.343676    0.741150    0.610804
     24          6           0        1.131807    1.955668   -0.063817
     25          6           0        0.524641    3.029243   -0.904301
     26          1           0       -0.067206    3.680152   -0.260392
     27          1           0        1.321825    3.633920   -1.335257
     28          1           0       -0.108863    2.643783   -1.700258
     29          6           0        4.897685   -0.496689   -0.192847
     30          1           0        4.958054   -0.676822   -1.267008
     31          1           0        5.554373    0.330750    0.058012
     32          1           0        5.251290   -1.391136    0.321055
     33          8           0        1.916484    2.221058    0.849400
 ---------------------------------------------------------------------

 SCF Done:  E(RM06) =  -801.867769043     A.U. after   10 cycles

      1  C    Isotropic =    58.8086   Anisotropy =   138.9367

      2  C    Isotropic =    40.1161   Anisotropy =   179.8612

      3  C    Isotropic =    43.3905   Anisotropy =   196.4972

      4  C    Isotropic =    40.1811   Anisotropy =   169.0544

      5  C    Isotropic =    58.5281   Anisotropy =   156.0924

      6  C    Isotropic =    15.6262   Anisotropy =   150.7414

      7  H    Isotropic =    25.2765   Anisotropy =     5.8566

      8  H    Isotropic =    24.6244   Anisotropy =     8.8375

      9  H    Isotropic =    24.5475   Anisotropy =     8.0996

     10  H    Isotropic =    24.8469   Anisotropy =     5.7608

     11  C    Isotropic =   146.3735   Anisotropy =    33.9990

     12  H    Isotropic =    29.1175   Anisotropy =     6.9540

     13  H    Isotropic =    28.2737   Anisotropy =     6.6248

     14  C    Isotropic =   129.4236   Anisotropy =    30.7089

     15  H    Isotropic =    27.3768   Anisotropy =     3.7821

     16  C    Isotropic =    -0.0636   Anisotropy =   121.2709

     17  O    Isotropic =   199.1103   Anisotropy =    61.8803

     18  H    Isotropic =    27.7528   Anisotropy =    12.9485

     19  O    Isotropic =   -88.8379   Anisotropy =   652.8180

     20  N    Isotropic =   105.4398   Anisotropy =   117.2875

     21  H    Isotropic =    27.0001   Anisotropy =     7.3073

     22  N    Isotropic =   135.6426   Anisotropy =   111.7918

     23  H    Isotropic =    24.5292   Anisotropy =    10.8337

     24  C    Isotropic =     0.9523   Anisotropy =   136.5009

     25  C    Isotropic =   155.8282   Anisotropy =    41.1649

     26  H    Isotropic =    30.2633   Anisotropy =     6.1845

     27  H    Isotropic =    30.1493   Anisotropy =     7.8341

     28  H    Isotropic =    31.0968   Anisotropy =     4.4767

     29  C    Isotropic =   150.5442   Anisotropy =    38.2978

     30  H    Isotropic =    29.2520   Anisotropy =     9.1730

     31  H    Isotropic =    29.7399   Anisotropy =     8.6833

     32  H    Isotropic =    29.1402   Anisotropy =     9.5301

     33  O    Isotropic =   -63.9679   Anisotropy =   602.4416

 The electronic state is 1-A.
 Alpha  occ. eigenvalues --  -19.25379 -19.18672 -19.17457 -14.42948 -14.40683
 Alpha  occ. eigenvalues --  -10.35216 -10.33286 -10.31335 -10.29455 -10.26452
 Alpha  occ. eigenvalues --  -10.25307 -10.25239 -10.25168 -10.25137 -10.25053
 Alpha  occ. eigenvalues --  -10.24715 -10.24599  -1.09591  -1.06590  -1.05002
 Alpha  occ. eigenvalues --   -0.95763  -0.93318  -0.88210  -0.81443  -0.77461
 Alpha  occ. eigenvalues --   -0.77272  -0.74446  -0.71704  -0.66374  -0.64521
 Alpha  occ. eigenvalues --   -0.61563  -0.60663  -0.58613  -0.56878  -0.55174
 Alpha  occ. eigenvalues --   -0.51726  -0.51135  -0.50413  -0.48434  -0.47032
 Alpha  occ. eigenvalues --   -0.46715  -0.45906  -0.45522  -0.44404  -0.44030
 Alpha  occ. eigenvalues --   -0.43424  -0.42722  -0.42488  -0.41760  -0.40904
 Alpha  occ. eigenvalues --   -0.39818  -0.38892  -0.38209  -0.37258  -0.36463
 Alpha  occ. eigenvalues --   -0.35565  -0.35218  -0.30319  -0.28290  -0.27942
 Alpha  occ. eigenvalues --   -0.27006  -0.26056  -0.24320
 Alpha virt. eigenvalues --   -0.02059  -0.00043   0.01055   0.01784   0.02534
 Alpha virt. eigenvalues --    0.03711   0.04013   0.04903   0.05574   0.06836
 Alpha virt. eigenvalues --    0.07588   0.08599   0.09115   0.10369   0.10901

 Mulliken charges:
               1
     1  C   -0.233260
     2  C   -0.239991
     3  C    0.166199
     4  C   -0.281589
     5  C   -0.162299
     6  C    0.286427
     7  H    0.118460
     8  H    0.161710
     9  H    0.180362
    10  H    0.129713
    11  C   -0.440601
    12  H    0.182125
    13  H    0.224220
    14  C   -0.139669
    15  H    0.215499
    16  C    0.312729
    17  O   -0.293127
    18  H    0.188925
    19  O   -0.394380
    20  N   -0.183015
    21  H    0.172500
    22  N   -0.193706
    23  H    0.182926
    24  C    0.311265
    25  C   -0.308528
    26  H    0.117981
    27  H    0.116508
    28  H    0.102560
    29  C   -0.180362
    30  H    0.108286
    31  H    0.091268
    32  H    0.110910
    33  O   -0.430046
 Sum of Mulliken charges =   0.00000

 Dipole moment (field-independent basis, Debye):
    X=             -2.2253    Y=              2.4962    Z=              0.1920  Tot=              3.3496
 Quadrupole moment (field-independent basis, Debye-Ang):
   XX=            -94.0564   YY=           -108.4151   ZZ=            -95.8263
   XY=             -0.8651   XZ=             -6.7917   YZ=             -5.3018

 Normal termination of Gaussian 09 at Wed Jun 25 06:48:29 2014.
