 Gaussian 09, Revision D.01,
 Gaussian 09:  EM64L-G09RevD.01 24-Apr-2013

 ----------------------------------------------------------------------
 #p nmr=(giao,mixed,spinspin) m06/cc-pvtz scf=tight integral=(grid=ultr
 afine)
 ----------------------------------------------------------------------

 ------------------
 NMR spin-spin scan
 ------------------
 Symbolic Z-matrix:
 Charge =  0 Multiplicity = 1

 SCF Done:  E(RM06) =  -801.920826506     A.U. after   16 cycles
 Normal termination of Gaussian 09 at Wed Jun 25 03:05:11 2014.

 ----------------------------------------------------------------------
 #P Geom=AllCheck Guess=TCheck SCRF=Check GenChk RM06/ChkBas NMR=ReadFC
  IOp(3/6=22)
 ----------------------------------------------------------------------

 Structure from the checkpoint file:  "/home/ztw1e12/tyrosine_scan/tyrosine_chi1_scan/Gau-1600.chk"
 ------------------
 NMR spin-spin scan
 ------------------
 Charge =  0 Multiplicity = 1

                         Standard orientation:
 ---------------------------------------------------------------------
 Center     Atomic      Atomic             Coordinates (Angstroms)
 Number     Number       Type             X           Y           Z
 ---------------------------------------------------------------------
      1          6           0       -3.286941    0.243093    1.043785
      2          6           0       -2.015654   -0.216503    1.333302
      3          6           0       -1.309259   -1.007446    0.433588
      4          6           0       -1.918213   -1.325174   -0.773973
      5          6           0       -3.190502   -0.874320   -1.080483
      6          6           0       -3.876485   -0.087868   -0.168658
      7          1           0       -3.831660    0.856695    1.752095
      8          1           0       -1.556256    0.045850    2.280700
      9          1           0       -1.384096   -1.939793   -1.490208
     10          1           0       -3.662892   -1.128574   -2.020869
     11          6           0        0.081354   -1.469363    0.742950
     12          1           0        0.140881   -1.831415    1.770152
     13          1           0        0.318124   -2.316086    0.096317
     14          6           0        1.181975   -0.414191    0.558985
     15          1           0        1.431681    0.014681    1.532593
     16          6           0        2.473431   -1.016298   -0.002532
     17          8           0       -5.127925    0.332724   -0.506018
     18          1           0       -5.493661    0.857870    0.214653
     19          8           0        2.519044   -2.107830   -0.562029
     20          7           0        0.760706    0.708655   -0.263106
     21          1           0        0.042747    0.550745   -0.954811
     22          7           0        3.549904   -0.241373    0.157046
     23          1           0        3.415717    0.672889    0.570660
     24          6           0        1.182606    1.968069   -0.060861
     25          6           0        0.547545    3.020413   -0.907718
     26          1           0        0.066697    3.747422   -0.253191
     27          1           0        1.325830    3.545754   -1.460625
     28          1           0       -0.187349    2.626105   -1.606250
     29          6           0        4.831749   -0.602822   -0.402869
     30          1           0        4.769648   -0.738214   -1.483518
     31          1           0        5.543215    0.189170   -0.190073
     32          1           0        5.202445   -1.530555    0.033730
     33          8           0        2.043259    2.250223    0.775292
 ---------------------------------------------------------------------

 SCF Done:  E(RM06) =  -801.866477989     A.U. after   10 cycles

      1  C    Isotropic =    59.1072   Anisotropy =   138.2451

      2  C    Isotropic =    39.2264   Anisotropy =   178.6847

      3  C    Isotropic =    43.8978   Anisotropy =   195.7101

      4  C    Isotropic =    39.6728   Anisotropy =   171.9334

      5  C    Isotropic =    58.4954   Anisotropy =   156.1476

      6  C    Isotropic =    15.6229   Anisotropy =   150.9304

      7  H    Isotropic =    25.2809   Anisotropy =     5.8273

      8  H    Isotropic =    24.6551   Anisotropy =     8.6940

      9  H    Isotropic =    24.4607   Anisotropy =     8.3111

     10  H    Isotropic =    24.8290   Anisotropy =     5.7893

     11  C    Isotropic =   147.9911   Anisotropy =    32.6901

     12  H    Isotropic =    29.1712   Anisotropy =     7.3908

     13  H    Isotropic =    28.0066   Anisotropy =     6.9125

     14  C    Isotropic =   130.5240   Anisotropy =    29.3892

     15  H    Isotropic =    27.3296   Anisotropy =     4.2565

     16  C    Isotropic =     0.0792   Anisotropy =   121.8945

     17  O    Isotropic =   198.8362   Anisotropy =    61.7325

     18  H    Isotropic =    27.7464   Anisotropy =    12.8995

     19  O    Isotropic =   -84.3862   Anisotropy =   650.7894

     20  N    Isotropic =   105.6289   Anisotropy =   117.1832

     21  H    Isotropic =    27.1196   Anisotropy =     8.5474

     22  N    Isotropic =   135.4323   Anisotropy =   110.6147

     23  H    Isotropic =    24.6723   Anisotropy =    10.2414

     24  C    Isotropic =     1.1729   Anisotropy =   135.9634

     25  C    Isotropic =   155.8342   Anisotropy =    41.1655

     26  H    Isotropic =    30.2441   Anisotropy =     6.3929

     27  H    Isotropic =    30.1509   Anisotropy =     7.7479

     28  H    Isotropic =    31.1567   Anisotropy =     4.3003

     29  C    Isotropic =   150.3497   Anisotropy =    38.6429

     30  H    Isotropic =    29.2687   Anisotropy =     9.0444

     31  H    Isotropic =    29.7397   Anisotropy =     8.7348

     32  H    Isotropic =    29.1293   Anisotropy =     9.5489

     33  O    Isotropic =   -64.0304   Anisotropy =   604.0769

 The electronic state is 1-A.
 Alpha  occ. eigenvalues --  -19.25415 -19.18605 -19.17538 -14.42864 -14.40764
 Alpha  occ. eigenvalues --  -10.35140 -10.33301 -10.31370 -10.29426 -10.26478
 Alpha  occ. eigenvalues --  -10.25328 -10.25269 -10.25167 -10.25131 -10.25006
 Alpha  occ. eigenvalues --  -10.24635 -10.24602  -1.09642  -1.06525  -1.05067
 Alpha  occ. eigenvalues --   -0.95678  -0.93380  -0.88224  -0.81344  -0.77460
 Alpha  occ. eigenvalues --   -0.77282  -0.74428  -0.71693  -0.66393  -0.64496
 Alpha  occ. eigenvalues --   -0.61557  -0.60606  -0.58637  -0.56880  -0.55083
 Alpha  occ. eigenvalues --   -0.51685  -0.51040  -0.50511  -0.48357  -0.47118
 Alpha  occ. eigenvalues --   -0.46659  -0.45958  -0.45432  -0.44399  -0.44045
 Alpha  occ. eigenvalues --   -0.43426  -0.42651  -0.42466  -0.41765  -0.40933
 Alpha  occ. eigenvalues --   -0.39887  -0.38947  -0.38165  -0.37174  -0.36463
 Alpha  occ. eigenvalues --   -0.35580  -0.35119  -0.30261  -0.28251  -0.27964
 Alpha  occ. eigenvalues --   -0.27082  -0.26090  -0.24362
 Alpha virt. eigenvalues --   -0.02058  -0.00050   0.01075   0.01746   0.02572
 Alpha virt. eigenvalues --    0.03788   0.03951   0.05029   0.05618   0.06843
 Alpha virt. eigenvalues --    0.07570   0.08609   0.09175   0.10387   0.10962

 Mulliken charges:
               1
     1  C   -0.235164
     2  C   -0.239205
     3  C    0.148478
     4  C   -0.272089
     5  C   -0.161463
     6  C    0.287616
     7  H    0.118905
     8  H    0.162751
     9  H    0.180741
    10  H    0.130313
    11  C   -0.445194
    12  H    0.180161
    13  H    0.229215
    14  C   -0.136667
    15  H    0.213976
    16  C    0.313265
    17  O   -0.292501
    18  H    0.188864
    19  O   -0.394609
    20  N   -0.184512
    21  H    0.177866
    22  N   -0.191667
    23  H    0.180601
    24  C    0.311315
    25  C   -0.311341
    26  H    0.117959
    27  H    0.117699
    28  H    0.103272
    29  C   -0.178411
    30  H    0.107082
    31  H    0.091121
    32  H    0.112113
    33  O   -0.430492
 Sum of Mulliken charges =   0.00000

 Dipole moment (field-independent basis, Debye):
    X=             -2.2135    Y=              2.5532    Z=              0.2946  Tot=              3.3920
 Quadrupole moment (field-independent basis, Debye-Ang):
   XX=            -92.9451   YY=           -107.8247   ZZ=            -97.0189
   XY=             -3.3852   XZ=             -6.4488   YZ=             -4.8698

 Normal termination of Gaussian 09 at Wed Jun 25 08:06:19 2014.
