 Gaussian 09, Revision D.01,
 Gaussian 09:  EM64L-G09RevD.01 24-Apr-2013

 ----------------------------------------------------------------------
 #p nmr=(giao,mixed,spinspin) m06/cc-pvtz scf=tight integral=(grid=ultr
 afine)
 ----------------------------------------------------------------------

 ------------------
 NMR spin-spin scan
 ------------------
 Symbolic Z-matrix:
 Charge =  0 Multiplicity = 1

 SCF Done:  E(RM06) =  -801.909265493     A.U. after   16 cycles
 Normal termination of Gaussian 09 at Wed Jun 25 01:42:37 2014.

 ----------------------------------------------------------------------
 #P Geom=AllCheck Guess=TCheck SCRF=Check GenChk RM06/ChkBas NMR=ReadFC
  IOp(3/6=22)
 ----------------------------------------------------------------------

 Structure from the checkpoint file:  "/home/ztw1e12/tyrosine_scan/tyrosine_chi1_scan/Gau-15105.chk"
 ------------------
 NMR spin-spin scan
 ------------------
 Charge =  0 Multiplicity = 1

                         Standard orientation:
 ---------------------------------------------------------------------
 Center     Atomic      Atomic             Coordinates (Angstroms)
 Number     Number       Type             X           Y           Z
 ---------------------------------------------------------------------
      1          6           0        2.947669    0.355401   -1.142237
      2          6           0        1.678295   -0.179749   -1.279839
      3          6           0        1.180266   -1.097137   -0.364296
      4          6           0        1.999299   -1.477797    0.693575
      5          6           0        3.269645   -0.956467    0.844944
      6          6           0        3.743975   -0.031935   -0.075031
      7          1           0        3.331749    1.068653   -1.862751
      8          1           0        1.061509    0.123911   -2.118632
      9          1           0        1.626494   -2.193942    1.417951
     10          1           0        3.904746   -1.256035    1.668848
     11          6           0       -0.218106   -1.623074   -0.475995
     12          1           0       -0.499810   -1.606789   -1.533154
     13          1           0       -0.266291   -2.661760   -0.148785
     14          6           0       -1.287861   -0.818312    0.300785
     15          1           0       -1.482343   -1.294179    1.264666
     16          6           0       -0.774844    0.572711    0.644342
     17          8           0        5.001451    0.458291    0.109835
     18          1           0        5.209688    1.084274   -0.593080
     19          8           0       -0.195260    0.775044    1.709202
     20          7           0       -2.509021   -0.767752   -0.473768
     21          1           0       -2.518371   -1.165705   -1.400525
     22          7           0       -0.939771    1.518964   -0.282362
     23          1           0       -1.359317    1.257044   -1.160669
     24          6           0       -3.653837   -0.284335    0.044919
     25          6           0       -4.860149   -0.335274   -0.832162
     26          1           0       -5.622567   -0.940410   -0.341752
     27          1           0       -5.260723    0.672982   -0.934649
     28          1           0       -4.659540   -0.744383   -1.820121
     29          6           0       -0.313783    2.813920   -0.155364
     30          1           0        0.775457    2.725315   -0.134018
     31          1           0       -0.599151    3.430456   -1.002599
     32          1           0       -0.634073    3.310915    0.759916
     33          8           0       -3.697358    0.179597    1.182265
 ---------------------------------------------------------------------

 SCF Done:  E(RM06) =  -801.854970091     A.U. after   10 cycles

      1  C    Isotropic =    62.2713   Anisotropy =   133.4044

      2  C    Isotropic =    42.3127   Anisotropy =   166.2756

      3  C    Isotropic =    46.8881   Anisotropy =   189.8230

      4  C    Isotropic =    36.3719   Anisotropy =   183.5782

      5  C    Isotropic =    57.6485   Anisotropy =   158.2629

      6  C    Isotropic =    15.0032   Anisotropy =   152.0019

      7  H    Isotropic =    25.5199   Anisotropy =     6.0176

      8  H    Isotropic =    25.0871   Anisotropy =     7.4584

      9  H    Isotropic =    24.4417   Anisotropy =     8.4333

     10  H    Isotropic =    24.8790   Anisotropy =     5.5281

     11  C    Isotropic =   136.9451   Anisotropy =    32.7951

     12  H    Isotropic =    30.1234   Anisotropy =     4.2324

     13  H    Isotropic =    28.5265   Anisotropy =     6.2633

     14  C    Isotropic =   121.0524   Anisotropy =    26.2964

     15  H    Isotropic =    27.6324   Anisotropy =     4.0698

     16  C    Isotropic =     0.5077   Anisotropy =   137.9457

     17  O    Isotropic =   198.0823   Anisotropy =    61.0932

     18  H    Isotropic =    27.8059   Anisotropy =    12.5279

     19  O    Isotropic =  -112.7539   Anisotropy =   665.7571

     20  N    Isotropic =   106.3000   Anisotropy =   165.7839

     21  H    Isotropic =    26.6729   Anisotropy =     6.8015

     22  N    Isotropic =   144.9406   Anisotropy =   106.4851

     23  H    Isotropic =    26.8144   Anisotropy =     6.0670

     24  C    Isotropic =     2.9020   Anisotropy =   130.5337

     25  C    Isotropic =   156.2053   Anisotropy =    41.2653

     26  H    Isotropic =    29.8688   Anisotropy =     7.4181

     27  H    Isotropic =    29.9332   Anisotropy =     6.5567

     28  H    Isotropic =    30.6245   Anisotropy =     5.5522

     29  C    Isotropic =   150.5669   Anisotropy =    38.3810

     30  H    Isotropic =    29.9618   Anisotropy =     7.5524

     31  H    Isotropic =    30.0652   Anisotropy =     9.0609

     32  H    Isotropic =    29.2378   Anisotropy =    10.1511

     33  O    Isotropic =  -126.4105   Anisotropy =   690.2634

 The electronic state is 1-A.
 Alpha  occ. eigenvalues --  -19.24743 -19.17746 -19.16581 -14.42968 -14.41483
 Alpha  occ. eigenvalues --  -10.34522 -10.32865 -10.30666 -10.29302 -10.26731
 Alpha  occ. eigenvalues --  -10.26438 -10.25030 -10.24963 -10.24811 -10.24457
 Alpha  occ. eigenvalues --  -10.24407 -10.23683  -1.08949  -1.05874  -1.04219
 Alpha  occ. eigenvalues --   -0.95838  -0.93477  -0.87691  -0.81562  -0.77243
 Alpha  occ. eigenvalues --   -0.76555  -0.73919  -0.71748  -0.66847  -0.63966
 Alpha  occ. eigenvalues --   -0.62346  -0.59848  -0.59294  -0.56195  -0.54904
 Alpha  occ. eigenvalues --   -0.52583  -0.50138  -0.50051  -0.47900  -0.47156
 Alpha  occ. eigenvalues --   -0.46860  -0.45547  -0.45141  -0.44234  -0.43750
 Alpha  occ. eigenvalues --   -0.43012  -0.42288  -0.41803  -0.41194  -0.41050
 Alpha  occ. eigenvalues --   -0.39743  -0.39109  -0.37898  -0.37370  -0.35638
 Alpha  occ. eigenvalues --   -0.35189  -0.34982  -0.29757  -0.27679  -0.27136
 Alpha  occ. eigenvalues --   -0.26556  -0.25393  -0.23636
 Alpha virt. eigenvalues --   -0.01027  -0.00279   0.00792   0.01966   0.02140
 Alpha virt. eigenvalues --    0.02970   0.03798   0.04883   0.05357   0.06547
 Alpha virt. eigenvalues --    0.06983   0.07820   0.09139   0.10201   0.10560

 Mulliken charges:
               1
     1  C   -0.264849
     2  C   -0.327888
     3  C    0.231261
     4  C   -0.176423
     5  C   -0.150038
     6  C    0.300842
     7  H    0.129310
     8  H    0.178305
     9  H    0.147937
    10  H    0.118962
    11  C   -0.494583
    12  H    0.205016
    13  H    0.189106
    14  C   -0.045217
    15  H    0.207008
    16  C    0.242930
    17  O   -0.292859
    18  H    0.187308
    19  O   -0.370807
    20  N   -0.239018
    21  H    0.156821
    22  N   -0.124401
    23  H    0.132389
    24  C    0.279988
    25  C   -0.317155
    26  H    0.122600
    27  H    0.119813
    28  H    0.096046
    29  C   -0.209987
    30  H    0.122929
    31  H    0.089602
    32  H    0.132988
    33  O   -0.377933
 Sum of Mulliken charges =   0.00000

 Dipole moment (field-independent basis, Debye):
    X=             -0.2873    Y=             -0.5565    Z=             -7.1008  Tot=              7.1284
 Quadrupole moment (field-independent basis, Debye-Ang):
   XX=            -97.0386   YY=            -91.6958   ZZ=           -103.2999
   XY=              9.4438   XZ=              8.7139   YZ=             -7.8950

 Normal termination of Gaussian 09 at Wed Jun 25 07:01:47 2014.
