 Gaussian 09, Revision D.01,
 Gaussian 09:  EM64L-G09RevD.01 24-Apr-2013

 ----------------------------------------------------------------------
 #p nmr=(giao,mixed,spinspin) m06/cc-pvtz scf=tight integral=(grid=ultr
 afine)
 ----------------------------------------------------------------------

 ------------------
 NMR spin-spin scan
 ------------------
 Symbolic Z-matrix:
 Charge =  0 Multiplicity = 1

 SCF Done:  E(RM06) =  -801.925102697     A.U. after   16 cycles
 Normal termination of Gaussian 09 at Wed Jun 25 01:39:25 2014.

 ----------------------------------------------------------------------
 #P Geom=AllCheck Guess=TCheck SCRF=Check GenChk RM06/ChkBas NMR=ReadFC
  IOp(3/6=22)
 ----------------------------------------------------------------------

 Structure from the checkpoint file:  "/home/ztw1e12/tyrosine_scan/tyrosine_chi1_scan/Gau-20986.chk"
 ------------------
 NMR spin-spin scan
 ------------------
 Charge =  0 Multiplicity = 1

                         Standard orientation:
 ---------------------------------------------------------------------
 Center     Atomic      Atomic             Coordinates (Angstroms)
 Number     Number       Type             X           Y           Z
 ---------------------------------------------------------------------
      1          6           0        3.173648   -0.534559   -1.279229
      2          6           0        1.888840   -0.999308   -1.066879
      3          6           0        1.333318   -1.031827    0.207417
      4          6           0        2.109262   -0.584857    1.269325
      5          6           0        3.396808   -0.116296    1.075187
      6          6           0        3.928679   -0.087113   -0.204133
      7          1           0        3.601048   -0.513660   -2.275387
      8          1           0        1.303161   -1.347757   -1.911124
      9          1           0        1.695966   -0.604975    2.271951
     10          1           0        3.997377    0.230751    1.906403
     11          6           0       -0.075358   -1.499316    0.413776
     12          1           0       -0.251180   -2.439936   -0.112102
     13          1           0       -0.253734   -1.690666    1.475556
     14          6           0       -1.100491   -0.496143   -0.084774
     15          1           0       -0.942573   -0.320918   -1.153854
     16          6           0       -2.530165   -1.008536    0.082254
     17          8           0        5.197805    0.386904   -0.355831
     18          1           0        5.438974    0.360833   -1.288654
     19          8           0       -2.798731   -2.030993    0.708139
     20          7           0       -0.921565    0.785237    0.581992
     21          1           0       -0.473960    0.783313    1.487365
     22          7           0       -3.459775   -0.255072   -0.511044
     23          1           0       -3.154851    0.591525   -0.976342
     24          6           0       -1.175479    1.966833   -0.004180
     25          6           0       -0.765548    3.185840    0.752410
     26          1           0        0.023423    3.688650    0.192195
     27          1           0       -1.611345    3.869617    0.810014
     28          1           0       -0.402863    2.968553    1.754717
     29          6           0       -4.866735   -0.561968   -0.403948
     30          1           0       -5.193109   -0.570604    0.636908
     31          1           0       -5.433499    0.194072   -0.938866
     32          1           0       -5.090821   -1.536972   -0.837683
     33          8           0       -1.709488    2.047905   -1.112444
 ---------------------------------------------------------------------

 SCF Done:  E(RM06) =  -801.870849224     A.U. after   10 cycles

      1  C    Isotropic =    58.8380   Anisotropy =   138.8694

      2  C    Isotropic =    42.2417   Anisotropy =   178.9776

      3  C    Isotropic =    42.4065   Anisotropy =   196.0688

      4  C    Isotropic =    40.3202   Anisotropy =   166.2275

      5  C    Isotropic =    58.8863   Anisotropy =   155.6885

      6  C    Isotropic =    15.6389   Anisotropy =   150.4299

      7  H    Isotropic =    25.2858   Anisotropy =     5.9590

      8  H    Isotropic =    24.6052   Anisotropy =     8.9422

      9  H    Isotropic =    24.6983   Anisotropy =     7.9282

     10  H    Isotropic =    24.9174   Anisotropy =     5.8137

     11  C    Isotropic =   141.5413   Anisotropy =    27.9718

     12  H    Isotropic =    28.7601   Anisotropy =     6.0710

     13  H    Isotropic =    29.3399   Anisotropy =     5.1580

     14  C    Isotropic =   122.9544   Anisotropy =    35.1814

     15  H    Isotropic =    27.6594   Anisotropy =     3.6889

     16  C    Isotropic =    -1.1119   Anisotropy =   123.1858

     17  O    Isotropic =   199.3972   Anisotropy =    62.6170

     18  H    Isotropic =    27.7778   Anisotropy =    12.9782

     19  O    Isotropic =   -87.4524   Anisotropy =   642.9451

     20  N    Isotropic =   105.2026   Anisotropy =   126.6027

     21  H    Isotropic =    26.7573   Anisotropy =     5.2846

     22  N    Isotropic =   136.2198   Anisotropy =   111.4796

     23  H    Isotropic =    24.4634   Anisotropy =    10.9312

     24  C    Isotropic =     0.2890   Anisotropy =   137.8621

     25  C    Isotropic =   155.8455   Anisotropy =    41.3495

     26  H    Isotropic =    30.2102   Anisotropy =     5.9496

     27  H    Isotropic =    30.0957   Anisotropy =     7.8607

     28  H    Isotropic =    30.8195   Anisotropy =     5.2133

     29  C    Isotropic =   150.7843   Anisotropy =    38.0687

     30  H    Isotropic =    29.2824   Anisotropy =     9.2660

     31  H    Isotropic =    29.7535   Anisotropy =     8.6378

     32  H    Isotropic =    29.1434   Anisotropy =     9.4852

     33  O    Isotropic =   -69.6424   Anisotropy =   602.7042

 The electronic state is 1-A.
 Alpha  occ. eigenvalues --  -19.25183 -19.18792 -19.17308 -14.43172 -14.40610
 Alpha  occ. eigenvalues --  -10.35355 -10.33188 -10.31117 -10.29487 -10.26423
 Alpha  occ. eigenvalues --  -10.25190 -10.25166 -10.25123 -10.25092 -10.25027
 Alpha  occ. eigenvalues --  -10.24933 -10.24418  -1.09390  -1.06707  -1.04869
 Alpha  occ. eigenvalues --   -0.95896  -0.93276  -0.88095  -0.81661  -0.77429
 Alpha  occ. eigenvalues --   -0.77114  -0.74439  -0.71734  -0.66298  -0.64503
 Alpha  occ. eigenvalues --   -0.61496  -0.60749  -0.58607  -0.56718  -0.55146
 Alpha  occ. eigenvalues --   -0.52032  -0.51352  -0.50055  -0.48644  -0.46928
 Alpha  occ. eigenvalues --   -0.46716  -0.45813  -0.45601  -0.44308  -0.43864
 Alpha  occ. eigenvalues --   -0.43388  -0.42764  -0.42513  -0.41657  -0.40800
 Alpha  occ. eigenvalues --   -0.39510  -0.38930  -0.38231  -0.37615  -0.36658
 Alpha  occ. eigenvalues --   -0.35573  -0.35396  -0.30436  -0.28407  -0.27749
 Alpha  occ. eigenvalues --   -0.26928  -0.25997  -0.24068
 Alpha virt. eigenvalues --   -0.01842   0.00246   0.00989   0.01962   0.02124
 Alpha virt. eigenvalues --    0.03461   0.04149   0.04730   0.05642   0.06729
 Alpha virt. eigenvalues --    0.07727   0.08718   0.09156   0.10452   0.10758

 Mulliken charges:
               1
     1  C   -0.235394
     2  C   -0.231849
     3  C    0.195028
     4  C   -0.265690
     5  C   -0.168739
     6  C    0.284713
     7  H    0.116272
     8  H    0.152530
     9  H    0.165261
    10  H    0.126128
    11  C   -0.431495
    12  H    0.193120
    13  H    0.208766
    14  C   -0.159528
    15  H    0.226788
    16  C    0.306946
    17  O   -0.294500
    18  H    0.189025
    19  O   -0.396469
    20  N   -0.173731
    21  H    0.155098
    22  N   -0.193455
    23  H    0.183607
    24  C    0.319868
    25  C   -0.307342
    26  H    0.120965
    27  H    0.115759
    28  H    0.099555
    29  C   -0.181900
    30  H    0.107791
    31  H    0.091147
    32  H    0.111238
    33  O   -0.429512
 Sum of Mulliken charges =   0.00000

 Dipole moment (field-independent basis, Debye):
    X=              1.7822    Y=              2.1878    Z=             -0.2268  Tot=              2.8309
 Quadrupole moment (field-independent basis, Debye-Ang):
   XX=            -96.6702   YY=           -106.9542   ZZ=            -94.1566
   XY=             -5.0185   XZ=             -5.9397   YZ=              9.7889

 Normal termination of Gaussian 09 at Wed Jun 25 06:36:04 2014.
