 Gaussian 09, Revision D.01,
 Gaussian 09:  EM64L-G09RevD.01 24-Apr-2013

 ----------------------------------------------------------------------
 #p nmr=(giao,mixed,spinspin) m06/cc-pvtz scf=tight integral=(grid=ultr
 afine)
 ----------------------------------------------------------------------

 ------------------
 NMR spin-spin scan
 ------------------
 Symbolic Z-matrix:
 Charge =  0 Multiplicity = 1

 SCF Done:  E(RM06) =  -801.922306044     A.U. after   16 cycles
 Normal termination of Gaussian 09 at Tue Jun 24 13:00:26 2014.

 ----------------------------------------------------------------------
 #P Geom=AllCheck Guess=TCheck SCRF=Check GenChk RM06/ChkBas NMR=ReadFC
  IOp(3/6=22)
 ----------------------------------------------------------------------

 Structure from the checkpoint file:  "/home/ztw1e12/tyrosine_scan/tyrosine_chi1_scan/Gau-7428.chk"
 ------------------
 NMR spin-spin scan
 ------------------
 Charge =  0 Multiplicity = 1

                         Standard orientation:
 ---------------------------------------------------------------------
 Center     Atomic      Atomic             Coordinates (Angstroms)
 Number     Number       Type             X           Y           Z
 ---------------------------------------------------------------------
      1          6           0       -3.398757    0.506753    0.756569
      2          6           0       -2.185764    0.206237    1.350721
      3          6           0       -1.321583   -0.729992    0.797422
      4          6           0       -1.707199   -1.355770   -0.384652
      5          6           0       -2.914860   -1.066589   -0.992314
      6          6           0       -3.764354   -0.131497   -0.418969
      7          1           0       -4.069236    1.234458    1.199279
      8          1           0       -1.902872    0.710260    2.268307
      9          1           0       -1.045043   -2.086441   -0.836334
     10          1           0       -3.213452   -1.560047   -1.908569
     11          6           0        0.006285   -1.022589    1.428832
     12          1           0       -0.066910   -0.811567    2.496397
     13          1           0        0.236809   -2.082651    1.327130
     14          6           0        1.202746   -0.225725    0.876539
     15          1           0        1.768338    0.203463    1.704081
     16          6           0        2.158964   -1.111079    0.070965
     17          8           0       -4.946080    0.122871   -1.046870
     18          1           0       -5.440532    0.779736   -0.543561
     19          8           0        1.819169   -2.182251   -0.424815
     20          7           0        0.798535    0.881387    0.023946
     21          1           0       -0.086188    0.810317   -0.458026
     22          7           0        3.388267   -0.606290   -0.071458
     23          1           0        3.549741    0.332659    0.270670
     24          6           0        1.498038    2.024889   -0.076557
     25          6           0        0.901714    3.090532   -0.935634
     26          1           0        0.820189    4.006035   -0.350601
     27          1           0        1.581952    3.292638   -1.763093
     28          1           0       -0.076310    2.827269   -1.332472
     29          6           0        4.377661   -1.250224   -0.904443
     30          1           0        4.053516   -1.301447   -1.945118
     31          1           0        5.302843   -0.684145   -0.854408
     32          1           0        4.571855   -2.265276   -0.558800
     33          8           0        2.575703    2.191804    0.497538
 ---------------------------------------------------------------------

 SCF Done:  E(RM06) =  -801.867917727     A.U. after   10 cycles

      1  C    Isotropic =    60.7477   Anisotropy =   135.0929

      2  C    Isotropic =    38.9401   Anisotropy =   170.6144

      3  C    Isotropic =    45.4628   Anisotropy =   192.3577

      4  C    Isotropic =    37.7590   Anisotropy =   187.7066

      5  C    Isotropic =    57.6127   Anisotropy =   157.6399

      6  C    Isotropic =    15.4047   Anisotropy =   151.1847

      7  H    Isotropic =    25.3299   Anisotropy =     5.7060

      8  H    Isotropic =    24.7447   Anisotropy =     8.1223

      9  H    Isotropic =    23.9028   Anisotropy =     9.1414

     10  H    Isotropic =    24.7605   Anisotropy =     6.0816

     11  C    Isotropic =   147.7657   Anisotropy =    25.6123

     12  H    Isotropic =    29.3491   Anisotropy =     7.9706

     13  H    Isotropic =    28.0117   Anisotropy =     5.8493

     14  C    Isotropic =   129.4208   Anisotropy =    27.0937

     15  H    Isotropic =    27.3328   Anisotropy =     4.7546

     16  C    Isotropic =    -2.0631   Anisotropy =   125.5173

     17  O    Isotropic =   198.3358   Anisotropy =    61.3373

     18  H    Isotropic =    27.7230   Anisotropy =    12.8442

     19  O    Isotropic =   -75.5530   Anisotropy =   626.2867

     20  N    Isotropic =   106.4514   Anisotropy =   119.8212

     21  H    Isotropic =    27.2224   Anisotropy =    12.4991

     22  N    Isotropic =   135.3058   Anisotropy =   108.3580

     23  H    Isotropic =    24.7538   Anisotropy =     9.7302

     24  C    Isotropic =     1.0081   Anisotropy =   135.5286

     25  C    Isotropic =   155.7972   Anisotropy =    40.9710

     26  H    Isotropic =    30.1660   Anisotropy =     7.1112

     27  H    Isotropic =    30.1453   Anisotropy =     7.2605

     28  H    Isotropic =    31.1093   Anisotropy =     4.4656

     29  C    Isotropic =   150.3683   Anisotropy =    38.5380

     30  H    Isotropic =    29.3629   Anisotropy =     9.0246

     31  H    Isotropic =    29.7451   Anisotropy =     8.8389

     32  H    Isotropic =    29.0585   Anisotropy =     9.2254

     33  O    Isotropic =   -67.6043   Anisotropy =   603.8104

 The electronic state is 1-A.
 Alpha  occ. eigenvalues --  -19.25327 -19.18514 -19.17602 -14.42738 -14.40839
 Alpha  occ. eigenvalues --  -10.35053 -10.33287 -10.31249 -10.29417 -10.26500
 Alpha  occ. eigenvalues --  -10.25256 -10.25142 -10.25003 -10.24941 -10.24786
 Alpha  occ. eigenvalues --  -10.24709 -10.24367  -1.09559  -1.06461  -1.05079
 Alpha  occ. eigenvalues --   -0.95560  -0.93432  -0.88068  -0.81237  -0.77389
 Alpha  occ. eigenvalues --   -0.77046  -0.74356  -0.71670  -0.66417  -0.64202
 Alpha  occ. eigenvalues --   -0.61595  -0.60482  -0.58598  -0.56658  -0.54902
 Alpha  occ. eigenvalues --   -0.51931  -0.50676  -0.50586  -0.48003  -0.47374
 Alpha  occ. eigenvalues --   -0.46490  -0.45940  -0.45172  -0.44202  -0.43950
 Alpha  occ. eigenvalues --   -0.43227  -0.42521  -0.42482  -0.41483  -0.40917
 Alpha  occ. eigenvalues --   -0.39868  -0.39258  -0.38088  -0.36884  -0.36621
 Alpha  occ. eigenvalues --   -0.35473  -0.35128  -0.30220  -0.28190  -0.27816
 Alpha  occ. eigenvalues --   -0.27134  -0.26003  -0.24278
 Alpha virt. eigenvalues --   -0.01806   0.00070   0.01234   0.01783   0.02734
 Alpha virt. eigenvalues --    0.03893   0.04120   0.05110   0.06123   0.07109
 Alpha virt. eigenvalues --    0.07433   0.08518   0.09839   0.10286   0.10856

 Mulliken charges:
               1
     1  C   -0.238037
     2  C   -0.256922
     3  C    0.135448
     4  C   -0.255253
     5  C   -0.165997
     6  C    0.288043
     7  H    0.120349
     8  H    0.160989
     9  H    0.191245
    10  H    0.130303
    11  C   -0.417884
    12  H    0.182347
    13  H    0.209897
    14  C   -0.103575
    15  H    0.198582
    16  C    0.303539
    17  O   -0.291787
    18  H    0.188651
    19  O   -0.397569
    20  N   -0.202563
    21  H    0.193180
    22  N   -0.190841
    23  H    0.178843
    24  C    0.312314
    25  C   -0.310039
    26  H    0.116460
    27  H    0.116148
    28  H    0.102076
    29  C   -0.177560
    30  H    0.104254
    31  H    0.091563
    32  H    0.114882
    33  O   -0.431084
 Sum of Mulliken charges =   0.00000

 Dipole moment (field-independent basis, Debye):
    X=             -1.9760    Y=              2.7162    Z=              0.3149  Tot=              3.3737
 Quadrupole moment (field-independent basis, Debye-Ang):
   XX=            -91.3787   YY=           -105.8125   ZZ=            -97.9812
   XY=            -10.0618   XZ=             -6.4615   YZ=             -3.6860

 Normal termination of Gaussian 09 at Tue Jun 24 18:03:49 2014.
