 Gaussian 09, Revision D.01,
 Gaussian 09:  EM64L-G09RevD.01 24-Apr-2013

 ----------------------------------------------------------------------
 #p nmr=(giao,mixed,spinspin) m06/cc-pvtz scf=tight integral=(grid=ultr
 afine)
 ----------------------------------------------------------------------

 ------------------
 NMR spin-spin scan
 ------------------
 Symbolic Z-matrix:
 Charge =  0 Multiplicity = 1

 SCF Done:  E(RM06) =  -801.919023110     A.U. after   15 cycles
 Normal termination of Gaussian 09 at Wed Jun 25 12:58:26 2014.

 ----------------------------------------------------------------------
 #P Geom=AllCheck Guess=TCheck SCRF=Check GenChk RM06/ChkBas NMR=ReadFC
  IOp(3/6=22)
 ----------------------------------------------------------------------

 Structure from the checkpoint file:  "/home/ztw1e12/tyrosine_scan/tyrosine_chi1_scan/Gau-9830.chk"
 ------------------
 NMR spin-spin scan
 ------------------
 Charge =  0 Multiplicity = 1

                         Standard orientation:
 ---------------------------------------------------------------------
 Center     Atomic      Atomic             Coordinates (Angstroms)
 Number     Number       Type             X           Y           Z
 ---------------------------------------------------------------------
      1          6           0        3.356161   -0.773721   -1.022773
      2          6           0        2.045104   -1.155201   -0.808034
      3          6           0        1.388423   -0.844932    0.377557
      4          6           0        2.086898   -0.136230    1.346796
      5          6           0        3.399207    0.254810    1.147733
      6          6           0        4.034859   -0.063843   -0.041626
      7          1           0        3.864975   -1.024314   -1.946870
      8          1           0        1.518624   -1.710839   -1.576963
      9          1           0        1.593172    0.112500    2.280151
     10          1           0        3.940661    0.805423    1.906476
     11          6           0       -0.041202   -1.244094    0.580468
     12          1           0       -0.190095   -2.278926    0.264759
     13          1           0       -0.311579   -1.184127    1.639193
     14          6           0       -1.014280   -0.382559   -0.222397
     15          1           0       -0.697419   -0.364826   -1.269656
     16          6           0       -2.377104   -1.053834   -0.224194
     17          8           0        5.327290    0.338550   -0.199514
     18          1           0        5.645873    0.059638   -1.065283
     19          8           0       -2.560566   -2.046691   -0.927244
     20          7           0       -1.023879    0.966902    0.294485
     21          1           0       -0.543870    1.158943    1.161502
     22          7           0       -3.309386   -0.556923    0.587613
     23          1           0       -3.105566    0.289572    1.094207
     24          6           0       -1.521889    1.999674   -0.416725
     25          6           0       -1.384050    3.354431    0.193729
     26          1           0       -0.780437    3.975446   -0.468184
     27          1           0       -2.370269    3.812329    0.262130
     28          1           0       -0.926323    3.333941    1.180216
     29          6           0       -4.636085   -1.124713    0.655898
     30          1           0       -4.607383   -2.149011    1.027864
     31          1           0       -5.241074   -0.525952    1.329658
     32          1           0       -5.109008   -1.132385   -0.326504
     33          8           0       -2.062185    1.829891   -1.506488
 ---------------------------------------------------------------------

 SCF Done:  E(RM06) =  -801.864716546     A.U. after   10 cycles

      1  C    Isotropic =    58.3517   Anisotropy =   139.5537

      2  C    Isotropic =    41.4683   Anisotropy =   180.9564

      3  C    Isotropic =    42.6763   Anisotropy =   193.2736

      4  C    Isotropic =    41.3423   Anisotropy =   163.7172

      5  C    Isotropic =    59.2386   Anisotropy =   154.8111

      6  C    Isotropic =    15.3379   Anisotropy =   150.7083

      7  H    Isotropic =    25.2047   Anisotropy =     6.0797

      8  H    Isotropic =    24.3388   Anisotropy =     8.9851

      9  H    Isotropic =    24.7813   Anisotropy =     8.0762

     10  H    Isotropic =    24.9491   Anisotropy =     5.9977

     11  C    Isotropic =   137.1765   Anisotropy =    20.9513

     12  H    Isotropic =    28.4183   Anisotropy =     5.2709

     13  H    Isotropic =    30.0381   Anisotropy =     4.1877

     14  C    Isotropic =   117.5539   Anisotropy =    29.8582

     15  H    Isotropic =    27.8722   Anisotropy =     3.0565

     16  C    Isotropic =    -0.7503   Anisotropy =   133.5902

     17  O    Isotropic =   198.9516   Anisotropy =    62.0284

     18  H    Isotropic =    27.7336   Anisotropy =    13.0602

     19  O    Isotropic =   -81.1281   Anisotropy =   646.5825

     20  N    Isotropic =   112.5513   Anisotropy =   142.8699

     21  H    Isotropic =    26.5244   Anisotropy =     5.9656

     22  N    Isotropic =   148.1427   Anisotropy =   103.4939

     23  H    Isotropic =    26.1843   Anisotropy =     9.0572

     24  C    Isotropic =     2.5026   Anisotropy =   131.5293

     25  C    Isotropic =   156.2654   Anisotropy =    40.9961

     26  H    Isotropic =    30.0638   Anisotropy =     6.7209

     27  H    Isotropic =    30.0347   Anisotropy =     7.3128

     28  H    Isotropic =    30.7194   Anisotropy =     5.0140

     29  C    Isotropic =   150.1822   Anisotropy =    39.7392

     30  H    Isotropic =    29.1769   Anisotropy =     9.5438

     31  H    Isotropic =    29.8206   Anisotropy =     8.8734

     32  H    Isotropic =    29.0141   Anisotropy =     9.4118

     33  O    Isotropic =  -116.4258   Anisotropy =   685.5325

 The electronic state is 1-A.
 Alpha  occ. eigenvalues --  -19.25270 -19.17968 -19.16975 -14.42966 -14.41836
 Alpha  occ. eigenvalues --  -10.34731 -10.33274 -10.31242 -10.29263 -10.27005
 Alpha  occ. eigenvalues --  -10.25850 -10.25413 -10.25346 -10.25177 -10.25076
 Alpha  occ. eigenvalues --  -10.25002 -10.24536  -1.09487  -1.06071  -1.04713
 Alpha  occ. eigenvalues --   -0.95979  -0.93780  -0.88262  -0.81829  -0.77437
 Alpha  occ. eigenvalues --   -0.77236  -0.74503  -0.71980  -0.66764  -0.64684
 Alpha  occ. eigenvalues --   -0.61506  -0.60955  -0.59706  -0.56845  -0.55270
 Alpha  occ. eigenvalues --   -0.52433  -0.51192  -0.49860  -0.48777  -0.47062
 Alpha  occ. eigenvalues --   -0.46741  -0.45814  -0.45647  -0.44393  -0.43952
 Alpha  occ. eigenvalues --   -0.43548  -0.42593  -0.41987  -0.41476  -0.41079
 Alpha  occ. eigenvalues --   -0.40434  -0.39530  -0.38844  -0.36972  -0.36417
 Alpha  occ. eigenvalues --   -0.35633  -0.35273  -0.30217  -0.27912  -0.27573
 Alpha  occ. eigenvalues --   -0.27251  -0.25924  -0.24203
 Alpha virt. eigenvalues --   -0.01974  -0.00074   0.00787   0.01934   0.02025
 Alpha virt. eigenvalues --    0.03094   0.03902   0.04811   0.05456   0.06607
 Alpha virt. eigenvalues --    0.07146   0.07698   0.09073   0.09849   0.10517

 Mulliken charges:
               1
     1  C   -0.234693
     2  C   -0.220745
     3  C    0.169983
     4  C   -0.249253
     5  C   -0.171262
     6  C    0.286304
     7  H    0.116937
     8  H    0.160045
     9  H    0.159245
    10  H    0.124819
    11  C   -0.449770
    12  H    0.213454
    13  H    0.201014
    14  C   -0.107393
    15  H    0.235922
    16  C    0.284321
    17  O   -0.293751
    18  H    0.189407
    19  O   -0.405152
    20  N   -0.233304
    21  H    0.168597
    22  N   -0.151337
    23  H    0.143040
    24  C    0.275258
    25  C   -0.312389
    26  H    0.123505
    27  H    0.117219
    28  H    0.098036
    29  C   -0.168173
    30  H    0.110755
    31  H    0.083971
    32  H    0.117551
    33  O   -0.382165
 Sum of Mulliken charges =   0.00000

 Dipole moment (field-independent basis, Debye):
    X=              1.7441    Y=              2.0570    Z=              3.9781  Tot=              4.8061
 Quadrupole moment (field-independent basis, Debye-Ang):
   XX=            -93.6633   YY=           -103.6065   ZZ=            -99.1773
   XY=             -6.3183   XZ=            -22.1264   YZ=              4.4559

 Normal termination of Gaussian 09 at Wed Jun 25 17:50:29 2014.
