 Gaussian 09, Revision D.01,
 Gaussian 09:  EM64L-G09RevD.01 24-Apr-2013

 ----------------------------------------------------------------------
 #p nmr=(giao,mixed,spinspin) m06/cc-pvtz scf=tight integral=(grid=ultr
 afine)
 ----------------------------------------------------------------------

 ------------------
 NMR spin-spin scan
 ------------------
 Symbolic Z-matrix:
 Charge =  0 Multiplicity = 1

 SCF Done:  E(RM06) =  -801.923331170     A.U. after   16 cycles
 Normal termination of Gaussian 09 at Wed Jun 25 01:47:15 2014.

 ----------------------------------------------------------------------
 #P Geom=AllCheck Guess=TCheck SCRF=Check GenChk RM06/ChkBas NMR=ReadFC
  IOp(3/6=22)
 ----------------------------------------------------------------------

 Structure from the checkpoint file:  "/home/ztw1e12/tyrosine_scan/tyrosine_chi1_scan/Gau-30886.chk"
 ------------------
 NMR spin-spin scan
 ------------------
 Charge =  0 Multiplicity = 1

                         Standard orientation:
 ---------------------------------------------------------------------
 Center     Atomic      Atomic             Coordinates (Angstroms)
 Number     Number       Type             X           Y           Z
 ---------------------------------------------------------------------
      1          6           0       -3.231072   -0.165929    1.232138
      2          6           0       -1.944075   -0.670325    1.261909
      3          6           0       -1.303942   -1.087766    0.100281
      4          6           0       -1.997297   -0.987938   -1.099301
      5          6           0       -3.285866   -0.485436   -1.147815
      6          6           0       -3.903221   -0.070515    0.021647
      7          1           0       -3.725347    0.156109    2.141690
      8          1           0       -1.421618   -0.742566    2.210056
      9          1           0       -1.515690   -1.308797   -2.016816
     10          1           0       -3.822521   -0.410317   -2.085053
     11          6           0        0.105192   -1.593234    0.143381
     12          1           0        0.242591   -2.308231    0.956346
     13          1           0        0.317230   -2.128708   -0.785147
     14          6           0        1.149635   -0.494144    0.313933
     15          1           0        1.174468   -0.192023    1.366198
     16          6           0        2.556133   -0.986052   -0.030274
     17          8           0       -5.171027    0.421397   -0.067904
     18          1           0       -5.475821    0.680057    0.809089
     19          8           0        2.770720   -2.088900   -0.525989
     20          7           0        0.795212    0.702535   -0.430722
     21          1           0        0.219039    0.592782   -1.252470
     22          7           0        3.532762   -0.124271    0.266485
     23          1           0        3.272864    0.766312    0.672727
     24          6           0        1.096251    1.946426   -0.024733
     25          6           0        0.542478    3.063511   -0.844474
     26          1           0       -0.084235    3.685793   -0.205617
     27          1           0        1.366506    3.684280   -1.195245
     28          1           0       -0.041079    2.722874   -1.696917
     29          6           0        4.917445   -0.422645   -0.013787
     30          1           0        5.077214   -0.599789   -1.078040
     31          1           0        5.528333    0.420981    0.292888
     32          1           0        5.247442   -1.308569    0.530050
     33          8           0        1.792162    2.163283    0.969954
 ---------------------------------------------------------------------

 SCF Done:  E(RM06) =  -801.869044048     A.U. after   10 cycles

      1  C    Isotropic =    58.6541   Anisotropy =   139.0691

      2  C    Isotropic =    41.1997   Anisotropy =   179.4787

      3  C    Isotropic =    42.8363   Anisotropy =   197.1396

      4  C    Isotropic =    40.5017   Anisotropy =   167.4254

      5  C    Isotropic =    58.6199   Anisotropy =   156.1777

      6  C    Isotropic =    15.6166   Anisotropy =   150.7868

      7  H    Isotropic =    25.2831   Anisotropy =     5.8591

      8  H    Isotropic =    24.6141   Anisotropy =     8.8002

      9  H    Isotropic =    24.6330   Anisotropy =     8.0037

     10  H    Isotropic =    24.8618   Anisotropy =     5.7592

     11  C    Isotropic =   144.3799   Anisotropy =    33.9711

     12  H    Isotropic =    29.0096   Anisotropy =     6.5690

     13  H    Isotropic =    28.6672   Anisotropy =     6.0042

     14  C    Isotropic =   127.4916   Anisotropy =    32.7057

     15  H    Isotropic =    27.4765   Anisotropy =     3.4057

     16  C    Isotropic =    -0.6440   Anisotropy =   121.4480

     17  O    Isotropic =   199.1612   Anisotropy =    62.2469

     18  H    Isotropic =    27.7584   Anisotropy =    12.9456

     19  O    Isotropic =   -90.5946   Anisotropy =   649.9190

     20  N    Isotropic =   104.8478   Anisotropy =   117.6259

     21  H    Isotropic =    26.8524   Anisotropy =     6.3628

     22  N    Isotropic =   136.3411   Anisotropy =   112.3905

     23  H    Isotropic =    24.5356   Anisotropy =    11.1485

     24  C    Isotropic =     0.7455   Anisotropy =   137.0716

     25  C    Isotropic =   155.8891   Anisotropy =    41.0633

     26  H    Isotropic =    30.2800   Anisotropy =     6.2134

     27  H    Isotropic =    30.1246   Anisotropy =     7.7843

     28  H    Isotropic =    31.0081   Anisotropy =     4.6443

     29  C    Isotropic =   150.6966   Anisotropy =    38.1375

     30  H    Isotropic =    29.2676   Anisotropy =     9.2642

     31  H    Isotropic =    29.7537   Anisotropy =     8.6638

     32  H    Isotropic =    29.1437   Anisotropy =     9.5159

     33  O    Isotropic =   -64.6119   Anisotropy =   601.6563

 The electronic state is 1-A.
 Alpha  occ. eigenvalues --  -19.25337 -19.18700 -19.17394 -14.43023 -14.40642
 Alpha  occ. eigenvalues --  -10.35272 -10.33268 -10.31283 -10.29479 -10.26442
 Alpha  occ. eigenvalues --  -10.25292 -10.25218 -10.25189 -10.25093 -10.25089
 Alpha  occ. eigenvalues --  -10.24848 -10.24597  -1.09559  -1.06633  -1.04954
 Alpha  occ. eigenvalues --   -0.95834  -0.93286  -0.88200  -0.81541  -0.77459
 Alpha  occ. eigenvalues --   -0.77256  -0.74462  -0.71725  -0.66361  -0.64559
 Alpha  occ. eigenvalues --   -0.61565  -0.60720  -0.58630  -0.56850  -0.55222
 Alpha  occ. eigenvalues --   -0.51812  -0.51242  -0.50302  -0.48534  -0.46969
 Alpha  occ. eigenvalues --   -0.46744  -0.45845  -0.45613  -0.44404  -0.43997
 Alpha  occ. eigenvalues --   -0.43431  -0.42795  -0.42478  -0.41725  -0.40874
 Alpha  occ. eigenvalues --   -0.39742  -0.38876  -0.38254  -0.37327  -0.36524
 Alpha  occ. eigenvalues --   -0.35567  -0.35397  -0.30368  -0.28335  -0.27901
 Alpha  occ. eigenvalues --   -0.26965  -0.26021  -0.24260
 Alpha virt. eigenvalues --   -0.02042  -0.00011   0.01035   0.01846   0.02432
 Alpha virt. eigenvalues --    0.03597   0.04082   0.04744   0.05600   0.06840
 Alpha virt. eigenvalues --    0.07657   0.08530   0.09123   0.10441   0.10866

 Mulliken charges:
               1
     1  C   -0.231526
     2  C   -0.239102
     3  C    0.186417
     4  C   -0.287837
     5  C   -0.165765
     6  C    0.286012
     7  H    0.117567
     8  H    0.157688
     9  H    0.178142
    10  H    0.128810
    11  C   -0.435362
    12  H    0.184089
    13  H    0.220199
    14  C   -0.141908
    15  H    0.218063
    16  C    0.309366
    17  O   -0.293674
    18  H    0.189070
    19  O   -0.394683
    20  N   -0.182670
    21  H    0.167391
    22  N   -0.194969
    23  H    0.184123
    24  C    0.313784
    25  C   -0.308490
    26  H    0.118577
    27  H    0.116225
    28  H    0.101918
    29  C   -0.181912
    30  H    0.108846
    31  H    0.091148
    32  H    0.110462
    33  O   -0.429999
 Sum of Mulliken charges =   0.00000

 Dipole moment (field-independent basis, Debye):
    X=             -2.1414    Y=              2.4144    Z=              0.0872  Tot=              3.2284
 Quadrupole moment (field-independent basis, Debye-Ang):
   XX=            -95.0201   YY=           -108.5901   ZZ=            -94.8667
   XY=              1.7548   XZ=             -7.2071   YZ=             -6.6287

 Normal termination of Gaussian 09 at Wed Jun 25 06:45:18 2014.
