 Gaussian 09, Revision D.01,
 Gaussian 09:  EM64L-G09RevD.01 24-Apr-2013

 ----------------------------------------------------------------------
 #p nmr=(giao,mixed,spinspin) m06/cc-pvtz scf=tight integral=(grid=ultr
 afine)
 ----------------------------------------------------------------------

 ------------------
 NMR spin-spin scan
 ------------------
 Symbolic Z-matrix:
 Charge =  0 Multiplicity = 1

 SCF Done:  E(RM06) =  -613.616186881     A.U. after   16 cycles
 Normal termination of Gaussian 09 at Wed Jun 18 06:29:53 2014.

 ----------------------------------------------------------------------
 #P Geom=AllCheck Guess=TCheck SCRF=Check GenChk RM06/ChkBas NMR=ReadFC
  IOp(3/6=22)
 ----------------------------------------------------------------------

 Structure from the checkpoint file:  "/home/ztw1e12/leucine_scan/leucine_chi2_scan/Gau-9369.chk"
 ------------------
 NMR spin-spin scan
 ------------------
 Charge =  0 Multiplicity = 1

                         Standard orientation:
 ---------------------------------------------------------------------
 Center     Atomic      Atomic             Coordinates (Angstroms)
 Number     Number       Type             X           Y           Z
 ---------------------------------------------------------------------
      1          6           0       -0.363417    1.256649    0.045533
      2          6           0        0.147397    0.060911   -0.755369
      3          1           0        0.531067    0.491735   -1.685962
      4          6           0       -1.668166   -3.136415   -0.154788
      5          1           0       -2.359782   -3.634320    0.527984
      6          1           0       -1.864055   -3.505081   -1.163428
      7          1           0       -0.651773   -3.440037    0.117793
      8          8           0        0.159372    1.625772    1.092248
      9          7           0        1.266790   -0.573204   -0.100677
     10          1           0        1.105400   -1.419382    0.423227
     11          7           0       -1.397717    1.903791   -0.503256
     12          1           0       -1.808368    1.549134   -1.351428
     13          6           0       -2.010835    3.034843    0.154043
     14          1           0       -2.387260    2.756907    1.140355
     15          1           0       -1.299603    3.851588    0.279379
     16          1           0       -2.841784    3.385871   -0.450174
     17          6           0        2.505912   -0.052833   -0.116682
     18          6           0        3.552388   -0.814692    0.628586
     19          1           0        3.189898   -1.752138    1.044898
     20          1           0        4.387070   -1.014134   -0.042604
     21          1           0        3.927481   -0.187818    1.437843
     22          8           0        2.774732    0.986765   -0.716821
     23          6           0       -1.805922   -1.625726   -0.074363
     24          1           0       -2.840510   -1.379250   -0.333695
     25          6           0       -1.610286   -1.172360    1.363357
     26          1           0       -0.602359   -1.373620    1.735117
     27          1           0       -1.821058   -0.112112    1.509971
     28          1           0       -2.299174   -1.723257    2.007015
     29          6           0       -0.912267   -0.962719   -1.152545
     30          1           0       -0.376027   -1.742794   -1.699490
     31          1           0       -1.554329   -0.491643   -1.899325
 ---------------------------------------------------------------------

 SCF Done:  E(RM06) =  -613.572521411     A.U. after    9 cycles

      1  C    Isotropic =     0.3186   Anisotropy =   129.7282

      2  C    Isotropic =   126.7194   Anisotropy =    33.3621

      3  H    Isotropic =    27.6085   Anisotropy =     4.4977

      4  C    Isotropic =   147.4341   Anisotropy =    40.1740

      5  H    Isotropic =    30.9744   Anisotropy =    10.2167

      6  H    Isotropic =    30.7694   Anisotropy =     9.1511

      7  H    Isotropic =    31.1811   Anisotropy =     6.0848

      8  O    Isotropic =  -110.3263   Anisotropy =   695.8461

      9  N    Isotropic =   113.7157   Anisotropy =   135.4181

     10  H    Isotropic =    26.6077   Anisotropy =     8.9212

     11  N    Isotropic =   146.1329   Anisotropy =   111.2513

     12  H    Isotropic =    26.9148   Anisotropy =     7.0774

     13  C    Isotropic =   149.8125   Anisotropy =    38.3338

     14  H    Isotropic =    29.1185   Anisotropy =     8.5994

     15  H    Isotropic =    28.9429   Anisotropy =     9.7491

     16  H    Isotropic =    29.7198   Anisotropy =     8.9825

     17  C    Isotropic =     3.4928   Anisotropy =   130.3388

     18  C    Isotropic =   155.5406   Anisotropy =    41.4524

     19  H    Isotropic =    30.6478   Anisotropy =     5.1935

     20  H    Isotropic =    30.0029   Anisotropy =     7.3020

     21  H    Isotropic =    29.6946   Anisotropy =     6.5990

     22  O    Isotropic =   -97.2832   Anisotropy =   666.3730

     23  C    Isotropic =   154.2822   Anisotropy =    16.1238

     24  H    Isotropic =    30.1779   Anisotropy =     7.4754

     25  C    Isotropic =   156.8383   Anisotropy =    22.2080

     26  H    Isotropic =    31.3174   Anisotropy =     5.2110

     27  H    Isotropic =    30.6479   Anisotropy =     7.7102

     28  H    Isotropic =    31.1459   Anisotropy =     9.3357

     29  C    Isotropic =   142.3263   Anisotropy =    24.0717

     30  H    Isotropic =    30.5604   Anisotropy =     5.0708

     31  H    Isotropic =    29.7651   Anisotropy =     6.1924

 The electronic state is 1-A.
 Alpha  occ. eigenvalues --  -19.17260 -19.16135 -14.42098 -14.41335 -10.33499
 Alpha  occ. eigenvalues --  -10.33051 -10.29230 -10.27322 -10.26012 -10.25959
 Alpha  occ. eigenvalues --  -10.23995 -10.23514 -10.23458  -1.05382  -1.03806
 Alpha  occ. eigenvalues --   -0.94471  -0.94129  -0.83971  -0.78694  -0.74217
 Alpha  occ. eigenvalues --   -0.72178  -0.70641  -0.66720  -0.60859  -0.59886
 Alpha  occ. eigenvalues --   -0.58412  -0.54866  -0.50505  -0.49264  -0.48621
 Alpha  occ. eigenvalues --   -0.47473  -0.46719  -0.45346  -0.45091  -0.44331
 Alpha  occ. eigenvalues --   -0.42816  -0.41983  -0.41046  -0.40474  -0.40041
 Alpha  occ. eigenvalues --   -0.39677  -0.38891  -0.38358  -0.36546  -0.35450
 Alpha  occ. eigenvalues --   -0.34362  -0.33646  -0.28194  -0.27553  -0.26178
 Alpha  occ. eigenvalues --   -0.25543
 Alpha virt. eigenvalues --    0.00513   0.02011   0.02661   0.03798   0.04649
 Alpha virt. eigenvalues --    0.04807   0.06774   0.07098   0.07622   0.07965
 Alpha virt. eigenvalues --    0.09335   0.09792   0.10668   0.11528   0.11913

 Mulliken charges:
               1
     1  C    0.263099
     2  C   -0.120552
     3  H    0.227150
     4  C   -0.428278
     5  H    0.140341
     6  H    0.136417
     7  H    0.146203
     8  O   -0.379319
     9  N   -0.199661
    10  H    0.167163
    11  N   -0.140197
    12  H    0.138103
    13  C   -0.180887
    14  H    0.113678
    15  H    0.123308
    16  H    0.086871
    17  C    0.306290
    18  C   -0.322176
    19  H    0.091316
    20  H    0.114509
    21  H    0.122452
    22  O   -0.406840
    23  C   -0.117718
    24  H    0.164407
    25  C   -0.478062
    26  H    0.163382
    27  H    0.180187
    28  H    0.148527
    29  C   -0.465530
    30  H    0.214537
    31  H    0.191283
 Sum of Mulliken charges =   0.00000

 Dipole moment (field-independent basis, Debye):
    X=             -4.2349    Y=             -3.2095    Z=             -1.2216  Tot=              5.4523
 Quadrupole moment (field-independent basis, Debye-Ang):
   XX=            -78.7701   YY=            -78.7147   ZZ=            -81.1613
   XY=            -12.4304   XZ=              6.4472   YZ=             -3.3662

 Normal termination of Gaussian 09 at Wed Jun 18 10:25:56 2014.
