 Gaussian 09, Revision D.01,
 Gaussian 09:  EM64L-G09RevD.01 24-Apr-2013

 ----------------------------------------------------------------------
 #p nmr=(giao,mixed,spinspin) m06/cc-pvtz scf=tight integral=(grid=ultr
 afine)
 ----------------------------------------------------------------------

 ------------------
 NMR spin-spin scan
 ------------------
 Symbolic Z-matrix:
 Charge =  0 Multiplicity = 1

 SCF Done:  E(RM06) =  -613.616744418     A.U. after   16 cycles
 Normal termination of Gaussian 09 at Wed Jun 18 06:25:26 2014.

 ----------------------------------------------------------------------
 #P Geom=AllCheck Guess=TCheck SCRF=Check GenChk RM06/ChkBas NMR=ReadFC
  IOp(3/6=22)
 ----------------------------------------------------------------------

 Structure from the checkpoint file:  "/home/ztw1e12/leucine_scan/leucine_chi2_scan/Gau-8319.chk"
 ------------------
 NMR spin-spin scan
 ------------------
 Charge =  0 Multiplicity = 1

                         Standard orientation:
 ---------------------------------------------------------------------
 Center     Atomic      Atomic             Coordinates (Angstroms)
 Number     Number       Type             X           Y           Z
 ---------------------------------------------------------------------
      1          6           0       -0.285971    1.303897    0.056805
      2          6           0        0.148546    0.065178   -0.724063
      3          1           0        0.555757    0.463313   -1.659311
      4          6           0       -2.046584   -2.980737   -0.255028
      5          1           0       -2.767483   -3.422454    0.436106
      6          1           0       -2.371634   -3.207390   -1.272732
      7          1           0       -1.081508   -3.472608   -0.097056
      8          8           0        0.321344    1.708499    1.043768
      9          7           0        1.234652   -0.618593   -0.065382
     10          1           0        1.026517   -1.418528    0.511133
     11          7           0       -1.344216    1.950391   -0.444195
     12          1           0       -1.817517    1.575361   -1.249736
     13          6           0       -1.845175    3.162685    0.161481
     14          1           0       -2.150658    2.988188    1.193987
     15          1           0       -1.088064    3.947246    0.157793
     16          1           0       -2.707063    3.505935   -0.402648
     17          6           0        2.511519   -0.205771   -0.148334
     18          6           0        3.511634   -1.007212    0.618846
     19          1           0        3.089946   -1.898451    1.079254
     20          1           0        4.323996   -1.291937   -0.048667
     21          1           0        3.936827   -0.373863    1.397962
     22          8           0        2.847995    0.770507   -0.816340
     23          6           0       -1.905985   -1.485553   -0.028918
     24          1           0       -2.889636   -1.024514   -0.163110
     25          6           0       -1.507416   -1.250902    1.419893
     26          1           0       -0.583417   -1.774577    1.681097
     27          1           0       -1.384398   -0.198123    1.675864
     28          1           0       -2.283612   -1.649947    2.075926
     29          6           0       -0.971253   -0.896054   -1.110668
     30          1           0       -0.470334   -1.718712   -1.629765
     31          1           0       -1.581365   -0.416768   -1.878573
 ---------------------------------------------------------------------

 SCF Done:  E(RM06) =  -613.573088901     A.U. after    9 cycles

      1  C    Isotropic =    -0.0383   Anisotropy =   129.2587

      2  C    Isotropic =   127.1538   Anisotropy =    33.8557

      3  H    Isotropic =    27.5037   Anisotropy =     4.5753

      4  C    Isotropic =   147.8498   Anisotropy =    39.7910

      5  H    Isotropic =    30.9233   Anisotropy =    10.2243

      6  H    Isotropic =    30.7388   Anisotropy =     9.3431

      7  H    Isotropic =    31.2896   Anisotropy =     6.2303

      8  O    Isotropic =  -106.9967   Anisotropy =   689.1893

      9  N    Isotropic =   113.1810   Anisotropy =   133.1179

     10  H    Isotropic =    26.5541   Anisotropy =     9.3606

     11  N    Isotropic =   146.1652   Anisotropy =   112.3099

     12  H    Isotropic =    26.8667   Anisotropy =     7.3185

     13  C    Isotropic =   149.9352   Anisotropy =    38.7341

     14  H    Isotropic =    29.0689   Anisotropy =     8.7471

     15  H    Isotropic =    28.9959   Anisotropy =     9.7669

     16  H    Isotropic =    29.7386   Anisotropy =     8.9514

     17  C    Isotropic =     3.5051   Anisotropy =   130.1214

     18  C    Isotropic =   155.4037   Anisotropy =    41.6372

     19  H    Isotropic =    30.6595   Anisotropy =     5.1459

     20  H    Isotropic =    30.0094   Anisotropy =     7.3154

     21  H    Isotropic =    29.6757   Anisotropy =     6.5876

     22  O    Isotropic =   -94.4119   Anisotropy =   662.6578

     23  C    Isotropic =   154.0263   Anisotropy =    14.8387

     24  H    Isotropic =    30.2375   Anisotropy =     7.2671

     25  C    Isotropic =   156.3305   Anisotropy =    24.0430

     26  H    Isotropic =    31.5574   Anisotropy =     5.6537

     27  H    Isotropic =    30.4864   Anisotropy =     7.5127

     28  H    Isotropic =    31.0419   Anisotropy =     9.4283

     29  C    Isotropic =   141.6275   Anisotropy =    26.9414

     30  H    Isotropic =    30.6110   Anisotropy =     5.0465

     31  H    Isotropic =    29.7903   Anisotropy =     5.9829

 The electronic state is 1-A.
 Alpha  occ. eigenvalues --  -19.17326 -19.16113 -14.42171 -14.41261 -10.33560
 Alpha  occ. eigenvalues --  -10.33032 -10.29209 -10.27334 -10.26114 -10.25972
 Alpha  occ. eigenvalues --  -10.24004 -10.23740 -10.23493  -1.05409  -1.03798
 Alpha  occ. eigenvalues --   -0.94522  -0.94122  -0.84113  -0.78751  -0.74223
 Alpha  occ. eigenvalues --   -0.72211  -0.70721  -0.66760  -0.60852  -0.59934
 Alpha  occ. eigenvalues --   -0.58614  -0.54940  -0.50460  -0.49257  -0.48858
 Alpha  occ. eigenvalues --   -0.47596  -0.46627  -0.45303  -0.45264  -0.44215
 Alpha  occ. eigenvalues --   -0.43031  -0.41802  -0.41131  -0.40587  -0.39960
 Alpha  occ. eigenvalues --   -0.39654  -0.39061  -0.38461  -0.36538  -0.35401
 Alpha  occ. eigenvalues --   -0.34756  -0.33788  -0.28178  -0.27593  -0.26199
 Alpha  occ. eigenvalues --   -0.25534
 Alpha virt. eigenvalues --    0.00497   0.02007   0.02686   0.03841   0.04565
 Alpha virt. eigenvalues --    0.04881   0.06613   0.07093   0.07612   0.08146
 Alpha virt. eigenvalues --    0.09496   0.09536   0.10353   0.11318   0.11989

 Mulliken charges:
               1
     1  C    0.253095
     2  C   -0.108751
     3  H    0.223418
     4  C   -0.429081
     5  H    0.140292
     6  H    0.138189
     7  H    0.144484
     8  O   -0.378519
     9  N   -0.200231
    10  H    0.168419
    11  N   -0.144931
    12  H    0.142541
    13  C   -0.173748
    14  H    0.112807
    15  H    0.119824
    16  H    0.085807
    17  C    0.309872
    18  C   -0.323111
    19  H    0.091177
    20  H    0.114389
    21  H    0.122633
    22  O   -0.407192
    23  C   -0.100243
    24  H    0.162486
    25  C   -0.493033
    26  H    0.157116
    27  H    0.190816
    28  H    0.149912
    29  C   -0.481096
    30  H    0.219427
    31  H    0.193230
 Sum of Mulliken charges =   0.00000

 Dipole moment (field-independent basis, Debye):
    X=             -4.6144    Y=             -2.9722    Z=             -0.8607  Tot=              5.5559
 Quadrupole moment (field-independent basis, Debye-Ang):
   XX=            -80.2219   YY=            -77.7480   ZZ=            -81.3682
   XY=            -12.3670   XZ=              6.5547   YZ=             -3.6927

 Normal termination of Gaussian 09 at Wed Jun 18 10:19:37 2014.
