 Gaussian 09, Revision D.01,
 Gaussian 09:  EM64L-G09RevD.01 24-Apr-2013

 ----------------------------------------------------------------------
 #p nmr=(giao,mixed,spinspin) m06/cc-pvtz scf=tight integral=(grid=ultr
 afine)
 ----------------------------------------------------------------------

 ------------------
 NMR spin-spin scan
 ------------------
 Symbolic Z-matrix:
 Charge =  0 Multiplicity = 1

 SCF Done:  E(RM06) =  -613.622779590     A.U. after   16 cycles
 Normal termination of Gaussian 09 at Tue Jun 17 22:30:07 2014.

 ----------------------------------------------------------------------
 #P Geom=AllCheck Guess=TCheck SCRF=Check GenChk RM06/ChkBas NMR=ReadFC
  IOp(3/6=22)
 ----------------------------------------------------------------------

 Structure from the checkpoint file:  "/home/ztw1e12/leucine_scan/leucine_chi2_scan/Gau-13431.chk"
 ------------------
 NMR spin-spin scan
 ------------------
 Charge =  0 Multiplicity = 1

                         Standard orientation:
 ---------------------------------------------------------------------
 Center     Atomic      Atomic             Coordinates (Angstroms)
 Number     Number       Type             X           Y           Z
 ---------------------------------------------------------------------
      1          6           0        0.141707    1.255267    0.143100
      2          6           0        0.115517    0.015051   -0.749206
      3          1           0        0.546733    0.327514   -1.705156
      4          6           0       -3.298816   -1.771900   -0.400995
      5          1           0       -4.078366   -1.951703    0.341888
      6          1           0       -3.784266   -1.450226   -1.325734
      7          1           0       -2.798482   -2.723248   -0.601628
      8          8           0        0.518091    1.239315    1.311234
      9          7           0        0.953075   -1.036364   -0.231124
     10          1           0        0.528161   -1.836810    0.208766
     11          7           0       -0.284521    2.373078   -0.455203
     12          1           0       -0.570519    2.331821   -1.420491
     13          6           0       -0.361594    3.631264    0.250076
     14          1           0       -1.081776    3.585485    1.067968
     15          1           0        0.608354    3.905627    0.664970
     16          1           0       -0.674141    4.404815   -0.444592
     17          6           0        2.291893   -0.918324   -0.206302
     18          6           0        3.048453   -2.053971    0.399772
     19          1           0        2.411743   -2.888138    0.686959
     20          1           0        3.798557   -2.398772   -0.310994
     21          1           0        3.576042   -1.688067    1.280851
     22          8           0        2.866336    0.069131   -0.663440
     23          6           0       -2.286290   -0.752671    0.093511
     24          1           0       -2.801286    0.179478    0.351817
     25          6           0       -1.664099   -1.304782    1.367995
     26          1           0       -1.211755   -2.286162    1.190028
     27          1           0       -0.911073   -0.649144    1.803588
     28          1           0       -2.443575   -1.455632    2.117896
     29          6           0       -1.306325   -0.455243   -1.050575
     30          1           0       -1.185746   -1.369574   -1.644003
     31          1           0       -1.766585    0.270014   -1.724452
 ---------------------------------------------------------------------

 SCF Done:  E(RM06) =  -613.579122702     A.U. after    9 cycles

      1  C    Isotropic =    -0.0190   Anisotropy =   131.0344

      2  C    Isotropic =   125.0512   Anisotropy =    32.2212

      3  H    Isotropic =    27.8397   Anisotropy =     4.2146

      4  C    Isotropic =   149.0266   Anisotropy =    41.4399

      5  H    Isotropic =    30.8816   Anisotropy =    10.1129

      6  H    Isotropic =    30.8593   Anisotropy =     9.6551

      7  H    Isotropic =    31.4298   Anisotropy =     6.5817

      8  O    Isotropic =   -93.6617   Anisotropy =   676.3846

      9  N    Isotropic =   112.2885   Anisotropy =   137.0458

     10  H    Isotropic =    26.1734   Anisotropy =     9.1055

     11  N    Isotropic =   143.5145   Anisotropy =   116.1509

     12  H    Isotropic =    27.0431   Anisotropy =     7.1217

     13  C    Isotropic =   150.1209   Anisotropy =    38.9894

     14  H    Isotropic =    29.2056   Anisotropy =     8.9870

     15  H    Isotropic =    28.8563   Anisotropy =     9.1852

     16  H    Isotropic =    29.7545   Anisotropy =     9.0212

     17  C    Isotropic =     3.0115   Anisotropy =   131.3478

     18  C    Isotropic =   155.8093   Anisotropy =    41.1873

     19  H    Isotropic =    30.6320   Anisotropy =     5.1993

     20  H    Isotropic =    30.0434   Anisotropy =     7.4393

     21  H    Isotropic =    29.7824   Anisotropy =     6.5372

     22  O    Isotropic =  -100.0254   Anisotropy =   665.2788

     23  C    Isotropic =   153.0758   Anisotropy =    12.1462

     24  H    Isotropic =    30.4197   Anisotropy =     6.6589

     25  C    Isotropic =   155.3885   Anisotropy =    25.7501

     26  H    Isotropic =    31.7757   Anisotropy =     5.7961

     27  H    Isotropic =    29.7116   Anisotropy =     7.9744

     28  H    Isotropic =    31.0101   Anisotropy =     9.2660

     29  C    Isotropic =   138.6967   Anisotropy =    28.5879

     30  H    Isotropic =    30.7408   Anisotropy =     5.2396

     31  H    Isotropic =    29.9393   Anisotropy =     6.0734

 The electronic state is 1-A.
 Alpha  occ. eigenvalues --  -19.17432 -19.16419 -14.42025 -14.41366 -10.33534
 Alpha  occ. eigenvalues --  -10.33218 -10.29256 -10.27145 -10.25808 -10.25623
 Alpha  occ. eigenvalues --  -10.23646 -10.23597 -10.22991  -1.05479  -1.04053
 Alpha  occ. eigenvalues --   -0.94431  -0.94189  -0.83918  -0.78675  -0.74317
 Alpha  occ. eigenvalues --   -0.72055  -0.70184  -0.66275  -0.60993  -0.59688
 Alpha  occ. eigenvalues --   -0.58276  -0.54779  -0.50609  -0.49508  -0.48804
 Alpha  occ. eigenvalues --   -0.47045  -0.46558  -0.45289  -0.45010  -0.44152
 Alpha  occ. eigenvalues --   -0.42642  -0.41525  -0.40754  -0.40472  -0.39928
 Alpha  occ. eigenvalues --   -0.39729  -0.39383  -0.37928  -0.36526  -0.34996
 Alpha  occ. eigenvalues --   -0.34635  -0.33728  -0.28292  -0.27572  -0.26178
 Alpha  occ. eigenvalues --   -0.25854
 Alpha virt. eigenvalues --    0.00907   0.02514   0.02767   0.03746   0.04493
 Alpha virt. eigenvalues --    0.04940   0.06501   0.07160   0.07540   0.08582
 Alpha virt. eigenvalues --    0.09560   0.10766   0.11071   0.11504   0.12021

 Mulliken charges:
               1
     1  C    0.305027
     2  C   -0.159374
     3  H    0.230924
     4  C   -0.428205
     5  H    0.140108
     6  H    0.136473
     7  H    0.144075
     8  O   -0.393435
     9  N   -0.198409
    10  H    0.177363
    11  N   -0.136915
    12  H    0.126940
    13  C   -0.171354
    14  H    0.107736
    15  H    0.122312
    16  H    0.085867
    17  C    0.302526
    18  C   -0.319462
    19  H    0.093290
    20  H    0.114149
    21  H    0.121793
    22  O   -0.407698
    23  C   -0.089801
    24  H    0.174899
    25  C   -0.520758
    26  H    0.146311
    27  H    0.195495
    28  H    0.148330
    29  C   -0.453259
    30  H    0.214336
    31  H    0.190714
 Sum of Mulliken charges =   0.00000

 Dipole moment (field-independent basis, Debye):
    X=             -4.0042    Y=             -1.0866    Z=             -1.7902  Tot=              4.5187
 Quadrupole moment (field-independent basis, Debye-Ang):
   XX=            -86.8941   YY=            -68.1376   ZZ=            -82.1343
   XY=             -8.1805   XZ=              3.5119   YZ=             -5.2466

 Normal termination of Gaussian 09 at Wed Jun 18 02:21:18 2014.
