 Gaussian 09, Revision D.01,
 Gaussian 09:  EM64L-G09RevD.01 24-Apr-2013

 ----------------------------------------------------------------------
 #p nmr=(giao,mixed,spinspin) m06/cc-pvtz scf=tight integral=(grid=ultr
 afine)
 ----------------------------------------------------------------------

 ------------------
 NMR spin-spin scan
 ------------------
 Symbolic Z-matrix:
 Charge =  0 Multiplicity = 1

 SCF Done:  E(RM06) =  -613.625859428     A.U. after   16 cycles
 Normal termination of Gaussian 09 at Wed Jun 18 22:55:18 2014.

 ----------------------------------------------------------------------
 #P Geom=AllCheck Guess=TCheck SCRF=Check GenChk RM06/ChkBas NMR=ReadFC
  IOp(3/6=22)
 ----------------------------------------------------------------------

 Structure from the checkpoint file:  "/home/ztw1e12/leucine_scan/leucine_chi2_scan/Gau-17123.chk"
 ------------------
 NMR spin-spin scan
 ------------------
 Charge =  0 Multiplicity = 1

                         Standard orientation:
 ---------------------------------------------------------------------
 Center     Atomic      Atomic             Coordinates (Angstroms)
 Number     Number       Type             X           Y           Z
 ---------------------------------------------------------------------
      1          6           0       -0.016852    1.147934    0.160698
      2          6           0        0.192899   -0.022099   -0.791275
      3          1           0        0.537678    0.386782   -1.745797
      4          6           0       -3.461793   -1.201723   -0.334596
      5          1           0       -4.142316   -1.384459    0.499272
      6          1           0       -3.814689   -0.323228   -0.877638
      7          1           0       -3.529574   -2.061430   -1.009494
      8          8           0        0.227086    1.075439    1.361904
      9          7           0        1.216169   -0.912508   -0.293537
     10          1           0        0.961869   -1.847547   -0.016617
     11          7           0       -0.527648    2.244538   -0.405947
     12          1           0       -0.724119    2.234502   -1.394398
     13          6           0       -0.900736    3.398447    0.379949
     14          1           0       -1.655452    3.139384    1.123866
     15          1           0       -0.037681    3.813392    0.900534
     16          1           0       -1.307704    4.158127   -0.280216
     17          6           0        2.495235   -0.520151   -0.176514
     18          6           0        3.458631   -1.529544    0.353860
     19          1           0        2.996409   -2.488750    0.577088
     20          1           0        4.254985   -1.673533   -0.376087
     21          1           0        3.915891   -1.133085    1.260342
     22          8           0        2.856040    0.612499   -0.496043
     23          6           0       -2.036835   -1.014510    0.152298
     24          1           0       -2.031782   -0.119589    0.786609
     25          6           0       -1.590466   -2.191841    0.998514
     26          1           0       -1.522024   -3.098448    0.388896
     27          1           0       -0.616784   -2.022793    1.463050
     28          1           0       -2.302327   -2.385401    1.803521
     29          6           0       -1.122334   -0.760152   -1.045201
     30          1           0       -0.898750   -1.705755   -1.551055
     31          1           0       -1.674780   -0.154037   -1.768757
 ---------------------------------------------------------------------

 SCF Done:  E(RM06) =  -613.582243706     A.U. after    9 cycles

      1  C    Isotropic =     0.1342   Anisotropy =   131.6320

      2  C    Isotropic =   123.3911   Anisotropy =    29.4830

      3  H    Isotropic =    28.0404   Anisotropy =     4.3454

      4  C    Isotropic =   150.5401   Anisotropy =    40.8056

      5  H    Isotropic =    31.0202   Anisotropy =     9.8428

      6  H    Isotropic =    31.1403   Anisotropy =     8.7957

      7  H    Isotropic =    31.1864   Anisotropy =     7.7914

      8  O    Isotropic =   -89.8845   Anisotropy =   675.1446

      9  N    Isotropic =   110.1409   Anisotropy =   142.0762

     10  H    Isotropic =    26.3817   Anisotropy =     8.4686

     11  N    Isotropic =   142.3094   Anisotropy =   118.5088

     12  H    Isotropic =    27.0819   Anisotropy =     6.8912

     13  C    Isotropic =   149.9940   Anisotropy =    38.6902

     14  H    Isotropic =    29.1571   Anisotropy =     8.5772

     15  H    Isotropic =    28.9087   Anisotropy =     9.4423

     16  H    Isotropic =    29.7610   Anisotropy =     8.9877

     17  C    Isotropic =     2.8595   Anisotropy =   131.7274

     18  C    Isotropic =   156.0991   Anisotropy =    40.9011

     19  H    Isotropic =    30.6398   Anisotropy =     5.3218

     20  H    Isotropic =    30.0464   Anisotropy =     7.3898

     21  H    Isotropic =    29.8359   Anisotropy =     6.6277

     22  O    Isotropic =  -102.5566   Anisotropy =   665.9036

     23  C    Isotropic =   152.6714   Anisotropy =    11.4399

     24  H    Isotropic =    30.3563   Anisotropy =     7.2486

     25  C    Isotropic =   154.0519   Anisotropy =    35.5384

     26  H    Isotropic =    31.5499   Anisotropy =     7.2287

     27  H    Isotropic =    30.3940   Anisotropy =     6.5596

     28  H    Isotropic =    30.9278   Anisotropy =     9.8435

     29  C    Isotropic =   136.2405   Anisotropy =    22.4038

     30  H    Isotropic =    30.8787   Anisotropy =     4.5220

     31  H    Isotropic =    30.2758   Anisotropy =     5.1751

 The electronic state is 1-A.
 Alpha  occ. eigenvalues --  -19.17184 -19.16486 -14.41985 -14.41471 -10.33379
 Alpha  occ. eigenvalues --  -10.33248 -10.29250 -10.27103 -10.25698 -10.25152
 Alpha  occ. eigenvalues --  -10.23711 -10.23382 -10.23380  -1.05370  -1.04019
 Alpha  occ. eigenvalues --   -0.94336  -0.94169  -0.83943  -0.78565  -0.74284
 Alpha  occ. eigenvalues --   -0.72010  -0.70443  -0.66038  -0.60937  -0.59572
 Alpha  occ. eigenvalues --   -0.58520  -0.54393  -0.50962  -0.49698  -0.48518
 Alpha  occ. eigenvalues --   -0.46787  -0.46118  -0.45402  -0.44924  -0.44621
 Alpha  occ. eigenvalues --   -0.42724  -0.41276  -0.41008  -0.40377  -0.40319
 Alpha  occ. eigenvalues --   -0.40217  -0.38278  -0.37505  -0.36527  -0.35286
 Alpha  occ. eigenvalues --   -0.34433  -0.33942  -0.28123  -0.27493  -0.26125
 Alpha  occ. eigenvalues --   -0.26007
 Alpha virt. eigenvalues --    0.00976   0.02772   0.02866   0.03784   0.04489
 Alpha virt. eigenvalues --    0.05037   0.06456   0.07439   0.07858   0.08314
 Alpha virt. eigenvalues --    0.09655   0.10014   0.10483   0.11799   0.11963

 Mulliken charges:
               1
     1  C    0.280870
     2  C   -0.159959
     3  H    0.222271
     4  C   -0.413094
     5  H    0.136690
     6  H    0.132372
     7  H    0.143406
     8  O   -0.392338
     9  N   -0.200956
    10  H    0.170223
    11  N   -0.119039
    12  H    0.123876
    13  C   -0.173273
    14  H    0.109861
    15  H    0.122979
    16  H    0.086106
    17  C    0.303955
    18  C   -0.318169
    19  H    0.093395
    20  H    0.114312
    21  H    0.121467
    22  O   -0.407648
    23  C   -0.146646
    24  H    0.207272
    25  C   -0.476038
    26  H    0.157006
    27  H    0.157764
    28  H    0.143930
    29  C   -0.431831
    30  H    0.209084
    31  H    0.202153
 Sum of Mulliken charges =   0.00000

 Dipole moment (field-independent basis, Debye):
    X=             -3.3010    Y=             -1.7330    Z=             -2.2316  Tot=              4.3451
 Quadrupole moment (field-independent basis, Debye-Ang):
   XX=            -83.9086   YY=            -70.4443   ZZ=            -82.0822
   XY=            -10.9646   XZ=              2.9585   YZ=             -3.6879

 Normal termination of Gaussian 09 at Thu Jun 19 02:44:24 2014.
