 Gaussian 09, Revision D.01,
 Gaussian 09:  EM64L-G09RevD.01 24-Apr-2013

 ----------------------------------------------------------------------
 #p nmr=(giao,mixed,spinspin) m06/cc-pvtz scf=tight integral=(grid=ultr
 afine)
 ----------------------------------------------------------------------

 ------------------
 NMR spin-spin scan
 ------------------
 Symbolic Z-matrix:
 Charge =  0 Multiplicity = 1

 SCF Done:  E(RM06) =  -613.623960842     A.U. after   16 cycles
 Normal termination of Gaussian 09 at Wed Jun 18 16:41:46 2014.

 ----------------------------------------------------------------------
 #P Geom=AllCheck Guess=TCheck SCRF=Check GenChk RM06/ChkBas NMR=ReadFC
  IOp(3/6=22)
 ----------------------------------------------------------------------

 Structure from the checkpoint file:  "/home/ztw1e12/leucine_scan/leucine_chi2_scan/Gau-17125.chk"
 ------------------
 NMR spin-spin scan
 ------------------
 Charge =  0 Multiplicity = 1

                         Standard orientation:
 ---------------------------------------------------------------------
 Center     Atomic      Atomic             Coordinates (Angstroms)
 Number     Number       Type             X           Y           Z
 ---------------------------------------------------------------------
      1          6           0       -0.020700    1.189961    0.068889
      2          6           0        0.176585   -0.084556   -0.755294
      3          1           0        0.557910    0.260179   -1.721167
      4          6           0       -1.798250   -0.868930    1.428353
      5          1           0       -2.389493   -1.425949    2.158276
      6          1           0       -0.795507   -0.755279    1.838599
      7          1           0       -2.245016    0.128194    1.344991
      8          8           0        0.505215    1.365851    1.163066
      9          7           0        1.192254   -0.929534   -0.174307
     10          1           0        0.903406   -1.687826    0.424669
     11          7           0       -0.775838    2.126078   -0.516839
     12          1           0       -1.177374    1.941409   -1.421706
     13          6           0       -1.084224    3.370423    0.149405
     14          1           0       -1.619577    3.193530    1.083987
     15          1           0       -0.177322    3.930829    0.377723
     16          1           0       -1.710692    3.973398   -0.500904
     17          6           0        2.492546   -0.581662   -0.174327
     18          6           0        3.411666   -1.459160    0.609608
     19          1           0        2.931572   -2.365197    0.973541
     20          1           0        4.269725   -1.722388   -0.007108
     21          1           0        3.782716   -0.889528    1.462556
     22          8           0        2.906088    0.401382   -0.786496
     23          6           0       -1.811782   -1.595130    0.096201
     24          1           0       -1.297069   -2.552324    0.252520
     25          6           0       -3.232268   -1.903486   -0.334316
     26          1           0       -3.804851   -0.976703   -0.439289
     27          1           0       -3.257306   -2.419862   -1.296510
     28          1           0       -3.742048   -2.530945    0.398949
     29          6           0       -1.095130   -0.873661   -1.049649
     30          1           0       -0.860784   -1.602702   -1.828869
     31          1           0       -1.804283   -0.175312   -1.508010
 ---------------------------------------------------------------------

 SCF Done:  E(RM06) =  -613.580325870     A.U. after   10 cycles

      1  C    Isotropic =    -0.5822   Anisotropy =   131.5746

      2  C    Isotropic =   126.4701   Anisotropy =    35.1931

      3  H    Isotropic =    27.6680   Anisotropy =     4.3980

      4  C    Isotropic =   156.9079   Anisotropy =    22.9577

      5  H    Isotropic =    31.1842   Anisotropy =     9.3015

      6  H    Isotropic =    30.4643   Anisotropy =     6.7290

      7  H    Isotropic =    31.5790   Anisotropy =     5.8199

      8  O    Isotropic =  -104.4318   Anisotropy =   692.2947

      9  N    Isotropic =   121.3103   Anisotropy =   130.5412

     10  H    Isotropic =    26.4031   Anisotropy =     8.6155

     11  N    Isotropic =   144.2832   Anisotropy =   109.9754

     12  H    Isotropic =    26.9946   Anisotropy =     6.9932

     13  C    Isotropic =   149.9109   Anisotropy =    38.5273

     14  H    Isotropic =    29.1873   Anisotropy =     8.5509

     15  H    Isotropic =    28.9326   Anisotropy =     9.5855

     16  H    Isotropic =    29.7312   Anisotropy =     8.9775

     17  C    Isotropic =     2.1221   Anisotropy =   132.7348

     18  C    Isotropic =   155.6982   Anisotropy =    41.4745

     19  H    Isotropic =    30.5817   Anisotropy =     5.4017

     20  H    Isotropic =    30.0222   Anisotropy =     7.5445

     21  H    Isotropic =    29.6800   Anisotropy =     6.3618

     22  O    Isotropic =  -104.0276   Anisotropy =   670.7783

     23  C    Isotropic =   153.7071   Anisotropy =     7.3618

     24  H    Isotropic =    30.4052   Anisotropy =     6.6328

     25  C    Isotropic =   151.5495   Anisotropy =    39.5323

     26  H    Isotropic =    31.3467   Anisotropy =     6.7730

     27  H    Isotropic =    30.9130   Anisotropy =     9.4920

     28  H    Isotropic =    30.9105   Anisotropy =    10.3078

     29  C    Isotropic =   139.1008   Anisotropy =    28.8098

     30  H    Isotropic =    29.9398   Anisotropy =     6.4332

     31  H    Isotropic =    30.7513   Anisotropy =     4.1561

 The electronic state is 1-A.
 Alpha  occ. eigenvalues --  -19.17379 -19.16335 -14.42067 -14.41352 -10.33555
 Alpha  occ. eigenvalues --  -10.33161 -10.29231 -10.27248 -10.25822 -10.25788
 Alpha  occ. eigenvalues --  -10.23759 -10.23542 -10.23033  -1.05503  -1.03956
 Alpha  occ. eigenvalues --   -0.94433  -0.94169  -0.84081  -0.78588  -0.74190
 Alpha  occ. eigenvalues --   -0.72063  -0.70506  -0.66444  -0.60500  -0.59994
 Alpha  occ. eigenvalues --   -0.58268  -0.55016  -0.50838  -0.49407  -0.48045
 Alpha  occ. eigenvalues --   -0.47262  -0.46800  -0.45326  -0.45110  -0.44081
 Alpha  occ. eigenvalues --   -0.42643  -0.41525  -0.40916  -0.40435  -0.40212
 Alpha  occ. eigenvalues --   -0.39865  -0.38789  -0.38332  -0.36398  -0.35287
 Alpha  occ. eigenvalues --   -0.34674  -0.33624  -0.28347  -0.27553  -0.26341
 Alpha  occ. eigenvalues --   -0.25686
 Alpha virt. eigenvalues --    0.01123   0.02041   0.02579   0.03636   0.04640
 Alpha virt. eigenvalues --    0.04785   0.06691   0.07086   0.07487   0.08225
 Alpha virt. eigenvalues --    0.10024   0.10547   0.11225   0.11334   0.11639

 Mulliken charges:
               1
     1  C    0.293088
     2  C   -0.146604
     3  H    0.231377
     4  C   -0.487022
     5  H    0.150986
     6  H    0.178071
     7  H    0.162273
     8  O   -0.387723
     9  N   -0.190825
    10  H    0.160434
    11  N   -0.144161
    12  H    0.132730
    13  C   -0.178929
    14  H    0.111313
    15  H    0.123904
    16  H    0.086943
    17  C    0.299724
    18  C   -0.319968
    19  H    0.091804
    20  H    0.114915
    21  H    0.124733
    22  O   -0.404629
    23  C   -0.151743
    24  H    0.178429
    25  C   -0.425736
    26  H    0.144463
    27  H    0.136675
    28  H    0.138961
    29  C   -0.406795
    30  H    0.193123
    31  H    0.190190
 Sum of Mulliken charges =   0.00000

 Dipole moment (field-independent basis, Debye):
    X=             -4.1775    Y=             -2.0488    Z=             -1.1198  Tot=              4.7858
 Quadrupole moment (field-independent basis, Debye-Ang):
   XX=            -84.6795   YY=            -72.1461   ZZ=            -81.6012
   XY=            -10.4707   XZ=              5.7697   YZ=             -4.7480

 Normal termination of Gaussian 09 at Wed Jun 18 20:36:14 2014.
