 Gaussian 09, Revision D.01,
 Gaussian 09:  EM64L-G09RevD.01 24-Apr-2013

 ----------------------------------------------------------------------
 #p nmr=(giao,mixed,spinspin) m06/cc-pvtz scf=tight integral=(grid=ultr
 afine)
 ----------------------------------------------------------------------

 ------------------
 NMR spin-spin scan
 ------------------
 Symbolic Z-matrix:
 Charge =  0 Multiplicity = 1

 SCF Done:  E(RM06) =  -613.617425677     A.U. after   16 cycles
 Normal termination of Gaussian 09 at Wed Jun 18 11:45:41 2014.

 ----------------------------------------------------------------------
 #P Geom=AllCheck Guess=TCheck SCRF=Check GenChk RM06/ChkBas NMR=ReadFC
  IOp(3/6=22)
 ----------------------------------------------------------------------

 Structure from the checkpoint file:  "/home/ztw1e12/leucine_scan/leucine_chi2_scan/Gau-8390.chk"
 ------------------
 NMR spin-spin scan
 ------------------
 Charge =  0 Multiplicity = 1

                         Standard orientation:
 ---------------------------------------------------------------------
 Center     Atomic      Atomic             Coordinates (Angstroms)
 Number     Number       Type             X           Y           Z
 ---------------------------------------------------------------------
      1          6           0       -0.209484    1.123487    0.053290
      2          6           0        0.267864   -0.100018   -0.728487
      3          1           0        0.628968    0.301853   -1.680480
      4          6           0       -1.481622   -1.204690    1.456459
      5          1           0       -2.074100   -1.798170    2.155733
      6          1           0       -0.449675   -1.232965    1.807519
      7          1           0       -1.838844   -0.173556    1.538764
      8          8           0        0.355047    1.522576    1.066475
      9          7           0        1.402065   -0.721545   -0.087573
     10          1           0        1.246368   -1.526249    0.499473
     11          7           0       -1.253604    1.767309   -0.482169
     12          1           0       -1.729954    1.360690   -1.270683
     13          6           0       -1.855551    2.900451    0.181898
     14          1           0       -2.223993    2.626989    1.173038
     15          1           0       -1.138328    3.712800    0.297860
     16          1           0       -2.690086    3.255580   -0.415179
     17          6           0        2.646753   -0.219905   -0.167138
     18          6           0        3.701843   -0.950500    0.597222
     19          1           0        3.335158   -1.852059    1.083352
     20          1           0        4.515117   -1.207464   -0.080609
     21          1           0        4.108740   -0.278518    1.353257
     22          8           0        2.913498    0.778128   -0.834884
     23          6           0       -1.662595   -1.762230    0.053642
     24          1           0       -1.368483   -2.815837    0.108881
     25          6           0       -3.130379   -1.726367   -0.331308
     26          1           0       -3.490816   -0.693931   -0.375804
     27          1           0       -3.297937   -2.177353   -1.311512
     28          1           0       -3.743100   -2.263104    0.395921
     29          6           0       -0.807683   -1.126654   -1.068841
     30          1           0       -0.311156   -1.915843   -1.636266
     31          1           0       -1.480334   -0.650293   -1.788223
 ---------------------------------------------------------------------

 SCF Done:  E(RM06) =  -613.573777331     A.U. after   10 cycles

      1  C    Isotropic =    -0.1138   Anisotropy =   130.4643

      2  C    Isotropic =   127.3085   Anisotropy =    33.7836

      3  H    Isotropic =    27.5377   Anisotropy =     4.6478

      4  C    Isotropic =   156.7929   Anisotropy =    22.0140

      5  H    Isotropic =    31.1261   Anisotropy =     9.5278

      6  H    Isotropic =    30.8637   Anisotropy =     6.7732

      7  H    Isotropic =    31.2028   Anisotropy =     5.8725

      8  O    Isotropic =  -109.2626   Anisotropy =   694.4568

      9  N    Isotropic =   116.0041   Anisotropy =   131.7506

     10  H    Isotropic =    26.5114   Anisotropy =     8.5923

     11  N    Isotropic =   145.1788   Anisotropy =   107.3893

     12  H    Isotropic =    26.9005   Anisotropy =     6.3907

     13  C    Isotropic =   149.9004   Anisotropy =    38.0698

     14  H    Isotropic =    29.1884   Anisotropy =     8.4317

     15  H    Isotropic =    28.8969   Anisotropy =     9.7510

     16  H    Isotropic =    29.7100   Anisotropy =     8.9079

     17  C    Isotropic =     3.2710   Anisotropy =   130.7863

     18  C    Isotropic =   155.4632   Anisotropy =    41.5921

     19  H    Isotropic =    30.6449   Anisotropy =     5.3744

     20  H    Isotropic =    29.9941   Anisotropy =     7.3299

     21  H    Isotropic =    29.6834   Anisotropy =     6.5508

     22  O    Isotropic =   -97.0138   Anisotropy =   665.3898

     23  C    Isotropic =   155.0901   Anisotropy =    15.3487

     24  H    Isotropic =    30.1833   Anisotropy =     7.9986

     25  C    Isotropic =   149.6642   Anisotropy =    38.7616

     26  H    Isotropic =    31.2120   Anisotropy =     5.5155

     27  H    Isotropic =    30.7959   Anisotropy =     9.2538

     28  H    Isotropic =    30.9874   Anisotropy =    10.3728

     29  C    Isotropic =   141.7807   Anisotropy =    29.0957

     30  H    Isotropic =    29.8340   Anisotropy =     6.4246

     31  H    Isotropic =    30.5376   Anisotropy =     4.2215

 The electronic state is 1-A.
 Alpha  occ. eigenvalues --  -19.17329 -19.16169 -14.42101 -14.41352 -10.33547
 Alpha  occ. eigenvalues --  -10.33084 -10.29231 -10.27323 -10.26079 -10.25976
 Alpha  occ. eigenvalues --  -10.24081 -10.23545 -10.23535  -1.05433  -1.03839
 Alpha  occ. eigenvalues --   -0.94493  -0.94155  -0.84065  -0.78695  -0.74201
 Alpha  occ. eigenvalues --   -0.72196  -0.70800  -0.66743  -0.60604  -0.59910
 Alpha  occ. eigenvalues --   -0.58570  -0.55160  -0.50589  -0.49259  -0.48500
 Alpha  occ. eigenvalues --   -0.47467  -0.46450  -0.45346  -0.45148  -0.44597
 Alpha  occ. eigenvalues --   -0.42661  -0.41770  -0.41374  -0.40610  -0.40316
 Alpha  occ. eigenvalues --   -0.39937  -0.38664  -0.38165  -0.36505  -0.35578
 Alpha  occ. eigenvalues --   -0.34879  -0.33427  -0.28163  -0.27666  -0.26231
 Alpha  occ. eigenvalues --   -0.25574
 Alpha virt. eigenvalues --    0.00890   0.02145   0.02510   0.03771   0.04383
 Alpha virt. eigenvalues --    0.04712   0.06640   0.07011   0.07565   0.07910
 Alpha virt. eigenvalues --    0.09008   0.10122   0.10643   0.11285   0.11972

 Mulliken charges:
               1
     1  C    0.274165
     2  C   -0.115266
     3  H    0.227910
     4  C   -0.487324
     5  H    0.152485
     6  H    0.166742
     7  H    0.173963
     8  O   -0.381187
     9  N   -0.192534
    10  H    0.158592
    11  N   -0.150621
    12  H    0.143102
    13  C   -0.193895
    14  H    0.117139
    15  H    0.128685
    16  H    0.089322
    17  C    0.305124
    18  C   -0.320098
    19  H    0.091151
    20  H    0.114498
    21  H    0.122560
    22  O   -0.406538
    23  C   -0.112126
    24  H    0.174875
    25  C   -0.439032
    26  H    0.141455
    27  H    0.139127
    28  H    0.142081
    29  C   -0.457995
    30  H    0.194271
    31  H    0.199371
 Sum of Mulliken charges =   0.00000

 Dipole moment (field-independent basis, Debye):
    X=             -4.2299    Y=             -3.3398    Z=             -0.7674  Tot=              5.4438
 Quadrupole moment (field-independent basis, Debye-Ang):
   XX=            -80.4221   YY=            -77.3082   ZZ=            -81.7243
   XY=            -12.0317   XZ=              6.4797   YZ=             -2.9671

 Normal termination of Gaussian 09 at Wed Jun 18 15:43:45 2014.
