 Gaussian 09, Revision D.01,
 Gaussian 09:  EM64L-G09RevD.01 24-Apr-2013

 ----------------------------------------------------------------------
 #p nmr=(giao,mixed,spinspin) m06/cc-pvtz scf=tight integral=(grid=ultr
 afine)
 ----------------------------------------------------------------------

 ------------------
 NMR spin-spin scan
 ------------------
 Symbolic Z-matrix:
 Charge =  0 Multiplicity = 1

 SCF Done:  E(RM06) =  -613.627027952     A.U. after   16 cycles
 Normal termination of Gaussian 09 at Wed Jun 18 20:50:05 2014.

 ----------------------------------------------------------------------
 #P Geom=AllCheck Guess=TCheck SCRF=Check GenChk RM06/ChkBas NMR=ReadFC
  IOp(3/6=22)
 ----------------------------------------------------------------------

 Structure from the checkpoint file:  "/home/ztw1e12/leucine_scan/leucine_chi2_scan/Gau-7620.chk"
 ------------------
 NMR spin-spin scan
 ------------------
 Charge =  0 Multiplicity = 1

                         Standard orientation:
 ---------------------------------------------------------------------
 Center     Atomic      Atomic             Coordinates (Angstroms)
 Number     Number       Type             X           Y           Z
 ---------------------------------------------------------------------
      1          6           0        0.036806    1.144371    0.080941
      2          6           0        0.223352   -0.108312   -0.764020
      3          1           0        0.600756    0.212648   -1.739306
      4          6           0       -2.808398   -0.192112    0.740677
      5          1           0       -3.376584   -0.539790    1.605884
      6          1           0       -2.281138    0.713704    1.042235
      7          1           0       -3.525362    0.078311   -0.040828
      8          8           0        0.234154    1.164339    1.292564
      9          7           0        1.199684   -0.993135   -0.172988
     10          1           0        0.896180   -1.880709    0.197344
     11          7           0       -0.382689    2.215579   -0.600534
     12          1           0       -0.562719    2.120992   -1.587821
     13          6           0       -0.748837    3.442771    0.068232
     14          1           0       -1.582369    3.285746    0.755648
     15          1           0        0.091027    3.841291    0.636718
     16          1           0       -1.042929    4.176274   -0.676035
     17          6           0        2.488052   -0.638090   -0.041136
     18          6           0        3.391870   -1.638097    0.601089
     19          1           0        2.878164   -2.548847    0.901348
     20          1           0        4.190474   -1.888351   -0.096942
     21          1           0        3.855917   -1.182424    1.475511
     22          8           0        2.905132    0.448947   -0.440425
     23          6           0       -1.880134   -1.284174    0.236089
     24          1           0       -1.180569   -1.543552    1.040180
     25          6           0       -2.695815   -2.518137   -0.104376
     26          1           0       -3.369088   -2.304973   -0.940926
     27          1           0       -2.058424   -3.355010   -0.396317
     28          1           0       -3.308792   -2.835851    0.741273
     29          6           0       -1.088977   -0.850200   -0.999403
     30          1           0       -0.836077   -1.732334   -1.595378
     31          1           0       -1.729230   -0.228637   -1.633613
 ---------------------------------------------------------------------

 SCF Done:  E(RM06) =  -613.583404209     A.U. after    9 cycles

      1  C    Isotropic =    -0.7598   Anisotropy =   133.2948

      2  C    Isotropic =   125.1892   Anisotropy =    30.5392

      3  H    Isotropic =    28.1836   Anisotropy =     4.3233

      4  C    Isotropic =   153.5809   Anisotropy =    35.8606

      5  H    Isotropic =    31.1099   Anisotropy =     9.7164

      6  H    Isotropic =    30.5517   Anisotropy =     8.0324

      7  H    Isotropic =    31.7906   Anisotropy =     7.0266

      8  O    Isotropic =   -91.4003   Anisotropy =   680.7280

      9  N    Isotropic =   113.1765   Anisotropy =   139.7322

     10  H    Isotropic =    26.5730   Anisotropy =     8.2553

     11  N    Isotropic =   141.3382   Anisotropy =   119.0573

     12  H    Isotropic =    26.9539   Anisotropy =     6.5406

     13  C    Isotropic =   149.9658   Anisotropy =    38.5928

     14  H    Isotropic =    29.2756   Anisotropy =     8.2644

     15  H    Isotropic =    28.8364   Anisotropy =     9.3458

     16  H    Isotropic =    29.7561   Anisotropy =     9.1253

     17  C    Isotropic =     2.7825   Anisotropy =   131.6111

     18  C    Isotropic =   156.1262   Anisotropy =    40.9396

     19  H    Isotropic =    30.6420   Anisotropy =     5.4868

     20  H    Isotropic =    30.0360   Anisotropy =     7.3213

     21  H    Isotropic =    29.8523   Anisotropy =     6.6795

     22  O    Isotropic =  -101.9473   Anisotropy =   661.2625

     23  C    Isotropic =   155.7339   Anisotropy =     4.3271

     24  H    Isotropic =    30.3819   Anisotropy =     5.6047

     25  C    Isotropic =   149.9373   Anisotropy =    40.7994

     26  H    Isotropic =    31.2224   Anisotropy =     7.5485

     27  H    Isotropic =    31.1064   Anisotropy =     9.1772

     28  H    Isotropic =    30.9521   Anisotropy =     9.9028

     29  C    Isotropic =   135.7542   Anisotropy =    24.0418

     30  H    Isotropic =    30.4581   Anisotropy =     5.1448

     31  H    Isotropic =    30.6305   Anisotropy =     4.2668

 The electronic state is 1-A.
 Alpha  occ. eigenvalues --  -19.17209 -19.16544 -14.41942 -14.41580 -10.33389
 Alpha  occ. eigenvalues --  -10.33335 -10.29282 -10.27097 -10.25702 -10.25387
 Alpha  occ. eigenvalues --  -10.23770 -10.23494 -10.22832  -1.05392  -1.04068
 Alpha  occ. eigenvalues --   -0.94405  -0.94228  -0.83958  -0.78623  -0.74269
 Alpha  occ. eigenvalues --   -0.72069  -0.70086  -0.66093  -0.60682  -0.59807
 Alpha  occ. eigenvalues --   -0.58594  -0.54499  -0.50920  -0.49797  -0.47706
 Alpha  occ. eigenvalues --   -0.47401  -0.46884  -0.45402  -0.44761  -0.44210
 Alpha  occ. eigenvalues --   -0.42218  -0.41863  -0.40624  -0.40358  -0.40174
 Alpha  occ. eigenvalues --   -0.39751  -0.38598  -0.37892  -0.36561  -0.35160
 Alpha  occ. eigenvalues --   -0.34603  -0.33741  -0.28206  -0.27548  -0.26135
 Alpha  occ. eigenvalues --   -0.26026
 Alpha virt. eigenvalues --    0.01290   0.02160   0.02744   0.03675   0.04680
 Alpha virt. eigenvalues --    0.05226   0.06499   0.07087   0.08039   0.08344
 Alpha virt. eigenvalues --    0.09867   0.10189   0.10673   0.11095   0.12143

 Mulliken charges:
               1
     1  C    0.245454
     2  C   -0.145229
     3  H    0.218879
     4  C   -0.467831
     5  H    0.141211
     6  H    0.177599
     7  H    0.152170
     8  O   -0.388775
     9  N   -0.186167
    10  H    0.154661
    11  N   -0.104146
    12  H    0.123191
    13  C   -0.182256
    14  H    0.114744
    15  H    0.126727
    16  H    0.087349
    17  C    0.304762
    18  C   -0.316704
    19  H    0.092602
    20  H    0.114294
    21  H    0.121173
    22  O   -0.406839
    23  C   -0.152315
    24  H    0.189830
    25  C   -0.413602
    26  H    0.143764
    27  H    0.133629
    28  H    0.137778
    29  C   -0.433831
    30  H    0.211599
    31  H    0.206278
 Sum of Mulliken charges =   0.00000

 Dipole moment (field-independent basis, Debye):
    X=             -3.1723    Y=             -1.9345    Z=             -2.1808  Tot=              4.3084
 Quadrupole moment (field-independent basis, Debye-Ang):
   XX=            -85.4281   YY=            -70.1060   ZZ=            -81.1941
   XY=             -9.7939   XZ=              3.7635   YZ=             -5.3161

 Normal termination of Gaussian 09 at Thu Jun 19 00:41:49 2014.
