 Gaussian 09, Revision D.01,
 Gaussian 09:  EM64L-G09RevD.01 24-Apr-2013

 ----------------------------------------------------------------------
 #p nmr=(giao,mixed,spinspin) m06/cc-pvtz scf=tight integral=(grid=ultr
 afine)
 ----------------------------------------------------------------------

 ------------------
 NMR spin-spin scan
 ------------------
 Symbolic Z-matrix:
 Charge =  0 Multiplicity = 1

 SCF Done:  E(RM06) =  -613.626280589     A.U. after   16 cycles
 Normal termination of Gaussian 09 at Wed Jun 18 22:10:49 2014.

 ----------------------------------------------------------------------
 #P Geom=AllCheck Guess=TCheck SCRF=Check GenChk RM06/ChkBas NMR=ReadFC
  IOp(3/6=22)
 ----------------------------------------------------------------------

 Structure from the checkpoint file:  "/home/ztw1e12/leucine_scan/leucine_chi2_scan/Gau-9368.chk"
 ------------------
 NMR spin-spin scan
 ------------------
 Charge =  0 Multiplicity = 1

                         Standard orientation:
 ---------------------------------------------------------------------
 Center     Atomic      Atomic             Coordinates (Angstroms)
 Number     Number       Type             X           Y           Z
 ---------------------------------------------------------------------
      1          6           0       -0.005309    1.172150   -0.094271
      2          6           0       -0.210573   -0.036728    0.810007
      3          1           0       -0.587298    0.327167    1.770097
      4          6           0        3.029268   -0.403738   -0.544003
      5          1           0        3.516688   -0.745000   -1.459584
      6          1           0        2.757955    0.646599   -0.681253
      7          1           0        3.763201   -0.453584    0.265762
      8          8           0       -0.142146    1.122192   -1.313501
      9          7           0       -1.176101   -0.953163    0.252956
     10          1           0       -0.862246   -1.857079   -0.067207
     11          7           0        0.375141    2.283700    0.544150
     12          1           0        0.521867    2.240279    1.540397
     13          6           0        0.778419    3.470313   -0.174835
     14          1           0        1.631574    3.269230   -0.825485
     15          1           0       -0.037174    3.849062   -0.790371
     16          1           0        1.056923    4.238108    0.540357
     17          6           0       -2.453881   -0.592867    0.048336
     18          6           0       -3.340865   -1.609959   -0.590038
     19          1           0       -2.855853   -2.573344   -0.731862
     20          1           0       -4.231843   -1.737317    0.023387
     21          1           0       -3.664443   -1.228763   -1.558964
     22          8           0       -2.871728    0.518277    0.373003
     23          6           0        1.822240   -1.260969   -0.209698
     24          1           0        1.126132   -1.210837   -1.053688
     25          6           0        2.240799   -2.709041   -0.034518
     26          1           0        2.920173   -2.809250    0.817494
     27          1           0        1.377521   -3.352372    0.152947
     28          1           0        2.758909   -3.083529   -0.919770
     29          6           0        1.114949   -0.747593    1.053719
     30          1           0        0.905156   -1.580269    1.731220
     31          1           0        1.770185   -0.066031    1.602575
 ---------------------------------------------------------------------

 SCF Done:  E(RM06) =  -613.582641422     A.U. after    9 cycles

      1  C    Isotropic =    -0.5862   Anisotropy =   132.8820

      2  C    Isotropic =   124.5895   Anisotropy =    29.7014

      3  H    Isotropic =    28.2699   Anisotropy =     4.6339

      4  C    Isotropic =   151.6805   Anisotropy =    35.8244

      5  H    Isotropic =    31.0830   Anisotropy =     9.9937

      6  H    Isotropic =    30.9574   Anisotropy =     7.1471

      7  H    Isotropic =    31.5250   Anisotropy =     7.4815

      8  O    Isotropic =   -89.0830   Anisotropy =   675.2655

      9  N    Isotropic =   114.2429   Anisotropy =   140.4149

     10  H    Isotropic =    26.5662   Anisotropy =     8.3690

     11  N    Isotropic =   142.6506   Anisotropy =   119.1934

     12  H    Isotropic =    27.0134   Anisotropy =     6.6342

     13  C    Isotropic =   149.9801   Anisotropy =    38.7375

     14  H    Isotropic =    29.2440   Anisotropy =     8.3693

     15  H    Isotropic =    28.8667   Anisotropy =     9.3281

     16  H    Isotropic =    29.7586   Anisotropy =     9.0944

     17  C    Isotropic =     2.5822   Anisotropy =   131.8712

     18  C    Isotropic =   156.2151   Anisotropy =    40.9796

     19  H    Isotropic =    30.6290   Anisotropy =     5.4808

     20  H    Isotropic =    30.0598   Anisotropy =     7.4701

     21  H    Isotropic =    29.8209   Anisotropy =     6.4879

     22  O    Isotropic =  -103.2099   Anisotropy =   662.1491

     23  C    Isotropic =   157.5339   Anisotropy =     9.9370

     24  H    Isotropic =    30.0642   Anisotropy =     6.2416

     25  C    Isotropic =   149.6009   Anisotropy =    38.1413

     26  H    Isotropic =    31.1577   Anisotropy =     7.6487

     27  H    Isotropic =    31.1009   Anisotropy =     8.3564

     28  H    Isotropic =    30.9445   Anisotropy =     9.9932

     29  C    Isotropic =   136.7009   Anisotropy =    26.2361

     30  H    Isotropic =    30.5449   Anisotropy =     5.0117

     31  H    Isotropic =    30.6265   Anisotropy =     4.3227

 The electronic state is 1-A.
 Alpha  occ. eigenvalues --  -19.17257 -19.16610 -14.41911 -14.41639 -10.33389
 Alpha  occ. eigenvalues --  -10.33374 -10.29267 -10.27085 -10.25537 -10.25084
 Alpha  occ. eigenvalues --  -10.23790 -10.23578 -10.23079  -1.05417  -1.04121
 Alpha  occ. eigenvalues --   -0.94450  -0.94227  -0.83869  -0.78621  -0.74323
 Alpha  occ. eigenvalues --   -0.72019  -0.70258  -0.65909  -0.60720  -0.59767
 Alpha  occ. eigenvalues --   -0.58638  -0.54507  -0.50812  -0.49804  -0.47911
 Alpha  occ. eigenvalues --   -0.46932  -0.46662  -0.45452  -0.44965  -0.44369
 Alpha  occ. eigenvalues --   -0.42612  -0.41682  -0.40821  -0.40472  -0.40254
 Alpha  occ. eigenvalues --   -0.40024  -0.38260  -0.37654  -0.36547  -0.35085
 Alpha  occ. eigenvalues --   -0.34448  -0.33988  -0.28311  -0.27517  -0.26161
 Alpha  occ. eigenvalues --   -0.25993
 Alpha virt. eigenvalues --    0.01341   0.02014   0.02675   0.03741   0.04661
 Alpha virt. eigenvalues --    0.05259   0.06725   0.07129   0.07966   0.08450
 Alpha virt. eigenvalues --    0.09990   0.10348   0.10568   0.11051   0.12045

 Mulliken charges:
               1
     1  C    0.251101
     2  C   -0.124033
     3  H    0.214284
     4  C   -0.440603
     5  H    0.138184
     6  H    0.162578
     7  H    0.141744
     8  O   -0.389573
     9  N   -0.196331
    10  H    0.162572
    11  N   -0.103656
    12  H    0.122947
    13  C   -0.183690
    14  H    0.110906
    15  H    0.127323
    16  H    0.087694
    17  C    0.305222
    18  C   -0.318034
    19  H    0.092488
    20  H    0.114422
    21  H    0.122581
    22  O   -0.406018
    23  C   -0.183617
    24  H    0.211537
    25  C   -0.423043
    26  H    0.145325
    27  H    0.137168
    28  H    0.139161
    29  C   -0.434532
    30  H    0.213126
    31  H    0.202767
 Sum of Mulliken charges =   0.00000

 Dipole moment (field-independent basis, Debye):
    X=              3.0527    Y=             -1.7752    Z=              2.3102  Tot=              4.2199
 Quadrupole moment (field-independent basis, Debye-Ang):
   XX=            -85.1687   YY=            -70.1007   ZZ=            -81.2252
   XY=              9.7850   XZ=              3.5041   YZ=              5.0697

 Normal termination of Gaussian 09 at Thu Jun 19 02:00:51 2014.
