 Gaussian 09, Revision D.01,
 Gaussian 09:  EM64L-G09RevD.01 24-Apr-2013

 ----------------------------------------------------------------------
 #p nmr=(giao,mixed,spinspin) m06/cc-pvtz scf=tight integral=(grid=ultr
 afine)
 ----------------------------------------------------------------------

 ------------------
 NMR spin-spin scan
 ------------------
 Symbolic Z-matrix:
 Charge =  0 Multiplicity = 1

 SCF Done:  E(RM06) =  -613.627266562     A.U. after   16 cycles
 Normal termination of Gaussian 09 at Wed Jun 18 16:37:44 2014.

 ----------------------------------------------------------------------
 #P Geom=AllCheck Guess=TCheck SCRF=Check GenChk RM06/ChkBas NMR=ReadFC
  IOp(3/6=22)
 ----------------------------------------------------------------------

 Structure from the checkpoint file:  "/home/ztw1e12/leucine_scan/leucine_chi2_scan/Gau-17170.chk"
 ------------------
 NMR spin-spin scan
 ------------------
 Charge =  0 Multiplicity = 1

                         Standard orientation:
 ---------------------------------------------------------------------
 Center     Atomic      Atomic             Coordinates (Angstroms)
 Number     Number       Type             X           Y           Z
 ---------------------------------------------------------------------
      1          6           0        0.081413    1.235759    0.069764
      2          6           0        0.163552   -0.064842   -0.732820
      3          1           0        0.578101    0.224663   -1.702301
      4          6           0       -2.109277   -0.616427    1.358004
      5          1           0       -2.667642   -1.175728    2.111562
      6          1           0       -1.183307   -0.276217    1.822769
      7          1           0       -2.704155    0.265841    1.099332
      8          8           0        0.608797    1.372365    1.170015
      9          7           0        1.095572   -0.983731   -0.128645
     10          1           0        0.746273   -1.635232    0.557793
     11          7           0       -0.574805    2.230735   -0.536007
     12          1           0       -0.974743    2.072799   -1.446820
     13          6           0       -0.768785    3.511287    0.105106
     14          1           0       -1.278320    3.394054    1.062506
     15          1           0        0.183371    4.012241    0.283307
     16          1           0       -1.377417    4.138975   -0.538690
     17          6           0        2.425510   -0.767694   -0.160431
     18          6           0        3.258972   -1.670775    0.687786
     19          1           0        2.703619   -2.517218    1.085878
     20          1           0        4.108000   -2.027928    0.107325
     21          1           0        3.653146   -1.086796    1.520792
     22          8           0        2.930003    0.118442   -0.846815
     23          6           0       -1.866131   -1.477371    0.132761
     24          1           0       -1.235597   -2.325447    0.427416
     25          6           0       -3.179208   -2.041046   -0.378508
     26          1           0       -3.858418   -1.227753   -0.652469
     27          1           0       -3.033176   -2.665231   -1.262458
     28          1           0       -3.674370   -2.644326    0.384427
     29          6           0       -1.180482   -0.735960   -1.009843
     30          1           0       -1.024749   -1.442686   -1.829567
     31          1           0       -1.869769    0.022907   -1.394747
 ---------------------------------------------------------------------

 SCF Done:  E(RM06) =  -613.583645715     A.U. after    9 cycles

      1  C    Isotropic =    -2.0927   Anisotropy =   133.1064

      2  C    Isotropic =   127.2696   Anisotropy =    37.6460

      3  H    Isotropic =    27.5829   Anisotropy =     4.4277

      4  C    Isotropic =   157.5984   Anisotropy =    28.7055

      5  H    Isotropic =    31.1973   Anisotropy =     9.6211

      6  H    Isotropic =    30.3101   Anisotropy =     7.2507

      7  H    Isotropic =    31.7682   Anisotropy =     6.1369

      8  O    Isotropic =   -99.0632   Anisotropy =   686.2877

      9  N    Isotropic =   122.5299   Anisotropy =   128.1059

     10  H    Isotropic =    26.3921   Anisotropy =     8.8702

     11  N    Isotropic =   143.6997   Anisotropy =   110.2909

     12  H    Isotropic =    26.9807   Anisotropy =     7.0389

     13  C    Isotropic =   149.8804   Anisotropy =    38.7915

     14  H    Isotropic =    29.1051   Anisotropy =     8.3414

     15  H    Isotropic =    29.0134   Anisotropy =     9.7595

     16  H    Isotropic =    29.7399   Anisotropy =     8.9464

     17  C    Isotropic =     1.5084   Anisotropy =   133.3845

     18  C    Isotropic =   155.6224   Anisotropy =    41.7471

     19  H    Isotropic =    30.5506   Anisotropy =     5.3636

     20  H    Isotropic =    30.0301   Anisotropy =     7.5829

     21  H    Isotropic =    29.6674   Anisotropy =     6.3124

     22  O    Isotropic =  -104.2511   Anisotropy =   668.6419

     23  C    Isotropic =   153.2761   Anisotropy =     4.8719

     24  H    Isotropic =    30.5693   Anisotropy =     5.9005

     25  C    Isotropic =   151.2940   Anisotropy =    41.9671

     26  H    Isotropic =    31.3136   Anisotropy =     7.2178

     27  H    Isotropic =    30.9758   Anisotropy =     9.5711

     28  H    Isotropic =    30.8569   Anisotropy =    10.0421

     29  C    Isotropic =   137.2374   Anisotropy =    27.0289

     30  H    Isotropic =    30.0185   Anisotropy =     6.2209

     31  H    Isotropic =    30.8021   Anisotropy =     4.3800

 The electronic state is 1-A.
 Alpha  occ. eigenvalues --  -19.17551 -19.16448 -14.42175 -14.41301 -10.33646
 Alpha  occ. eigenvalues --  -10.33224 -10.29182 -10.27321 -10.25844 -10.25735
 Alpha  occ. eigenvalues --  -10.23703 -10.23529 -10.23068  -1.05598  -1.04058
 Alpha  occ. eigenvalues --   -0.94538  -0.94217  -0.84183  -0.78596  -0.74202
 Alpha  occ. eigenvalues --   -0.72070  -0.70452  -0.66402  -0.60534  -0.60252
 Alpha  occ. eigenvalues --   -0.58061  -0.55138  -0.50962  -0.49477  -0.47734
 Alpha  occ. eigenvalues --   -0.47452  -0.46976  -0.45390  -0.45179  -0.44199
 Alpha  occ. eigenvalues --   -0.42589  -0.41497  -0.40788  -0.40494  -0.40164
 Alpha  occ. eigenvalues --   -0.39609  -0.39242  -0.38419  -0.36384  -0.35245
 Alpha  occ. eigenvalues --   -0.34936  -0.33849  -0.28398  -0.27671  -0.26496
 Alpha  occ. eigenvalues --   -0.25759
 Alpha virt. eigenvalues --    0.01228   0.02089   0.02585   0.03541   0.04578
 Alpha virt. eigenvalues --    0.04903   0.06707   0.06994   0.07595   0.08186
 Alpha virt. eigenvalues --    0.09872   0.10580   0.11291   0.11509   0.12235

 Mulliken charges:
               1
     1  C    0.286436
     2  C   -0.148390
     3  H    0.228597
     4  C   -0.481715
     5  H    0.149267
     6  H    0.180762
     7  H    0.157674
     8  O   -0.390107
     9  N   -0.198976
    10  H    0.165899
    11  N   -0.141815
    12  H    0.132235
    13  C   -0.174026
    14  H    0.112747
    15  H    0.120844
    16  H    0.086495
    17  C    0.302099
    18  C   -0.322177
    19  H    0.092251
    20  H    0.115953
    21  H    0.126163
    22  O   -0.403884
    23  C   -0.163568
    24  H    0.174691
    25  C   -0.419800
    26  H    0.146638
    27  H    0.135082
    28  H    0.137980
    29  C   -0.392442
    30  H    0.193035
    31  H    0.192050
 Sum of Mulliken charges =   0.00000

 Dipole moment (field-independent basis, Debye):
    X=             -4.3063    Y=             -1.4430    Z=             -0.9325  Tot=              4.6364
 Quadrupole moment (field-independent basis, Debye-Ang):
   XX=            -86.4918   YY=            -70.7480   ZZ=            -81.6478
   XY=             -8.9001   XZ=              5.9465   YZ=             -5.8157

 Normal termination of Gaussian 09 at Wed Jun 18 20:28:46 2014.
