 Gaussian 09, Revision D.01,
 Gaussian 09:  EM64L-G09RevD.01 24-Apr-2013

 ----------------------------------------------------------------------
 #p nmr=(giao,mixed,spinspin) m06/cc-pvtz scf=tight integral=(grid=ultr
 afine)
 ----------------------------------------------------------------------

 ------------------
 NMR spin-spin scan
 ------------------
 Symbolic Z-matrix:
 Charge =  0 Multiplicity = 1

 SCF Done:  E(RM06) =  -613.619225426     A.U. after   16 cycles
 Normal termination of Gaussian 09 at Tue Jun 17 22:32:53 2014.

 ----------------------------------------------------------------------
 #P Geom=AllCheck Guess=TCheck SCRF=Check GenChk RM06/ChkBas NMR=ReadFC
  IOp(3/6=22)
 ----------------------------------------------------------------------

 Structure from the checkpoint file:  "/home/ztw1e12/leucine_scan/leucine_chi2_scan/Gau-10248.chk"
 ------------------
 NMR spin-spin scan
 ------------------
 Charge =  0 Multiplicity = 1

                         Standard orientation:
 ---------------------------------------------------------------------
 Center     Atomic      Atomic             Coordinates (Angstroms)
 Number     Number       Type             X           Y           Z
 ---------------------------------------------------------------------
      1          6           0        0.000551    1.298565    0.110057
      2          6           0        0.122372    0.031195   -0.738365
      3          1           0        0.545937    0.366648   -1.690419
      4          6           0       -2.879055   -2.326116   -0.353047
      5          1           0       -3.647596   -2.609576    0.368831
      6          1           0       -3.351831   -2.250110   -1.335105
      7          1           0       -2.143505   -3.134281   -0.399234
      8          8           0        0.530346    1.425313    1.209803
      9          7           0        1.059623   -0.905221   -0.169664
     10          1           0        0.708018   -1.713682    0.318672
     11          7           0       -0.714845    2.278451   -0.453886
     12          1           0       -1.089525    2.143022   -1.379055
     13          6           0       -0.902391    3.553916    0.199714
     14          1           0       -1.384948    3.429671    1.169092
     15          1           0        0.050144    4.062335    0.354586
     16          1           0       -1.533123    4.179324   -0.424720
     17          6           0        2.386058   -0.686447   -0.186577
     18          6           0        3.235484   -1.721967    0.474203
     19          1           0        2.662087   -2.551138    0.882780
     20          1           0        3.954805   -2.103392   -0.250014
     21          1           0        3.800826   -1.248120    1.276593
     22          8           0        2.879977    0.304067   -0.723480
     23          6           0       -2.195238   -1.030130    0.047577
     24          1           0       -2.951353   -0.243140    0.134722
     25          6           0       -1.592584   -1.227532    1.430867
     26          1           0       -0.920696   -2.091305    1.454728
     27          1           0       -1.048516   -0.358530    1.799550
     28          1           0       -2.391341   -1.440345    2.144327
     29          6           0       -1.217346   -0.622853   -1.072204
     30          1           0       -0.958260   -1.518896   -1.646823
     31          1           0       -1.744245    0.022074   -1.777597
 ---------------------------------------------------------------------

 SCF Done:  E(RM06) =  -613.575546605     A.U. after    9 cycles

      1  C    Isotropic =    -0.0300   Anisotropy =   129.7426

      2  C    Isotropic =   125.7826   Anisotropy =    33.9431

      3  H    Isotropic =    27.7209   Anisotropy =     4.2251

      4  C    Isotropic =   148.1782   Anisotropy =    40.6107

      5  H    Isotropic =    30.9019   Anisotropy =    10.1577

      6  H    Isotropic =    30.7898   Anisotropy =     9.5178

      7  H    Isotropic =    31.3870   Anisotropy =     6.3330

      8  O    Isotropic =  -102.4477   Anisotropy =   685.5875

      9  N    Isotropic =   112.9137   Anisotropy =   136.2175

     10  H    Isotropic =    26.3505   Anisotropy =     9.1690

     11  N    Isotropic =   144.2799   Anisotropy =   114.3799

     12  H    Isotropic =    26.9996   Anisotropy =     7.2283

     13  C    Isotropic =   149.9362   Anisotropy =    39.0192

     14  H    Isotropic =    29.0275   Anisotropy =     8.6216

     15  H    Isotropic =    29.0112   Anisotropy =     9.6965

     16  H    Isotropic =    29.7482   Anisotropy =     8.9413

     17  C    Isotropic =     3.2257   Anisotropy =   130.7090

     18  C    Isotropic =   155.6367   Anisotropy =    41.2856

     19  H    Isotropic =    30.6500   Anisotropy =     5.1278

     20  H    Isotropic =    30.0136   Anisotropy =     7.3158

     21  H    Isotropic =    29.7535   Anisotropy =     6.6484

     22  O    Isotropic =   -98.3785   Anisotropy =   666.2043

     23  C    Isotropic =   153.7531   Anisotropy =    13.9575

     24  H    Isotropic =    30.3112   Anisotropy =     7.0277

     25  C    Isotropic =   155.8373   Anisotropy =    24.5956

     26  H    Isotropic =    31.6817   Anisotropy =     5.7129

     27  H    Isotropic =    30.0249   Anisotropy =     8.1413

     28  H    Isotropic =    31.0482   Anisotropy =     9.3275

     29  C    Isotropic =   140.0176   Anisotropy =    28.7462

     30  H    Isotropic =    30.6705   Anisotropy =     5.1866

     31  H    Isotropic =    29.8400   Anisotropy =     6.0219

 The electronic state is 1-A.
 Alpha  occ. eigenvalues --  -19.17411 -19.16234 -14.42114 -14.41302 -10.33584
 Alpha  occ. eigenvalues --  -10.33103 -10.29289 -10.27233 -10.25886 -10.25794
 Alpha  occ. eigenvalues --  -10.23750 -10.23545 -10.23229  -1.05456  -1.03900
 Alpha  occ. eigenvalues --   -0.94461  -0.94133  -0.83944  -0.78682  -0.74251
 Alpha  occ. eigenvalues --   -0.72097  -0.70373  -0.66465  -0.60944  -0.59800
 Alpha  occ. eigenvalues --   -0.58350  -0.54784  -0.50519  -0.49340  -0.48853
 Alpha  occ. eigenvalues --   -0.47206  -0.46596  -0.45254  -0.45107  -0.44180
 Alpha  occ. eigenvalues --   -0.42823  -0.41613  -0.40868  -0.40529  -0.39878
 Alpha  occ. eigenvalues --   -0.39694  -0.39253  -0.38222  -0.36477  -0.35089
 Alpha  occ. eigenvalues --   -0.34642  -0.33685  -0.28277  -0.27530  -0.26193
 Alpha  occ. eigenvalues --   -0.25675
 Alpha virt. eigenvalues --    0.00725   0.02277   0.02671   0.03748   0.04534
 Alpha virt. eigenvalues --    0.05008   0.06600   0.07015   0.07687   0.08310
 Alpha virt. eigenvalues --    0.09449   0.10325   0.10737   0.11279   0.12094

 Mulliken charges:
               1
     1  C    0.281328
     2  C   -0.138843
     3  H    0.230662
     4  C   -0.430898
     5  H    0.140548
     6  H    0.137981
     7  H    0.143415
     8  O   -0.385296
     9  N   -0.195221
    10  H    0.169647
    11  N   -0.138612
    12  H    0.131015
    13  C   -0.170587
    14  H    0.114023
    15  H    0.117565
    16  H    0.085344
    17  C    0.304830
    18  C   -0.320714
    19  H    0.092771
    20  H    0.113895
    21  H    0.121450
    22  O   -0.407705
    23  C   -0.091802
    24  H    0.171303
    25  C   -0.512267
    26  H    0.149961
    27  H    0.198061
    28  H    0.147384
    29  C   -0.473966
    30  H    0.220323
    31  H    0.194404
 Sum of Mulliken charges =   0.00000

 Dipole moment (field-independent basis, Debye):
    X=             -4.4228    Y=             -1.6666    Z=             -1.4824  Tot=              4.9534
 Quadrupole moment (field-independent basis, Debye-Ang):
   XX=            -85.1684   YY=            -71.0037   ZZ=            -81.7405
   XY=            -10.5229   XZ=              4.5494   YZ=             -5.0236

 Normal termination of Gaussian 09 at Wed Jun 18 02:25:35 2014.
