 Gaussian 09, Revision D.01,
 Gaussian 09:  EM64L-G09RevD.01 24-Apr-2013

 ----------------------------------------------------------------------
 #p nmr=(giao,mixed,spinspin) m06/cc-pvtz scf=tight integral=(grid=ultr
 afine)
 ----------------------------------------------------------------------

 ------------------
 NMR spin-spin scan
 ------------------
 Symbolic Z-matrix:
 Charge =  0 Multiplicity = 1

 SCF Done:  E(RM06) =  -613.628071800     A.U. after   16 cycles
 Normal termination of Gaussian 09 at Tue Jun 17 22:35:30 2014.

 ----------------------------------------------------------------------
 #P Geom=AllCheck Guess=TCheck SCRF=Check GenChk RM06/ChkBas NMR=ReadFC
  IOp(3/6=22)
 ----------------------------------------------------------------------

 Structure from the checkpoint file:  "/home/ztw1e12/leucine_scan/leucine_chi2_scan/Gau-10753.chk"
 ------------------
 NMR spin-spin scan
 ------------------
 Charge =  0 Multiplicity = 1

                         Standard orientation:
 ---------------------------------------------------------------------
 Center     Atomic      Atomic             Coordinates (Angstroms)
 Number     Number       Type             X           Y           Z
 ---------------------------------------------------------------------
      1          6           0        0.045273    1.180288    0.158149
      2          6           0        0.152262   -0.006009   -0.791598
      3          1           0        0.525313    0.377456   -1.745932
      4          6           0       -3.466193   -1.396270   -0.367769
      5          1           0       -4.170644   -1.557138    0.450217
      6          1           0       -3.922494   -0.703459   -1.077781
      7          1           0       -3.327297   -2.353879   -0.879221
      8          8           0        0.275693    1.095045    1.361047
      9          7           0        1.101541   -0.981051   -0.310112
     10          1           0        0.769582   -1.876464    0.011546
     11          7           0       -0.357315    2.316446   -0.419283
     12          1           0       -0.552359    2.315971   -1.407850
     13          6           0       -0.625020    3.507114    0.354501
     14          1           0       -1.432908    3.343338    1.069298
     15          1           0        0.261478    3.819612    0.906228
     16          1           0       -0.913075    4.307549   -0.319973
     17          6           0        2.408116   -0.689650   -0.198454
     18          6           0        3.288419   -1.764514    0.347409
     19          1           0        2.757357   -2.689535    0.561222
     20          1           0        4.086782   -1.962148   -0.367423
     21          1           0        3.754534   -1.400023    1.262918
     22          8           0        2.858209    0.405863   -0.533742
     23          6           0       -2.135201   -0.878416    0.147073
     24          1           0       -2.312663    0.072557    0.664920
     25          6           0       -1.559496   -1.867427    1.145765
     26          1           0       -1.306019   -2.810006    0.648125
     27          1           0       -0.664667   -1.492571    1.643792
     28          1           0       -2.292268   -2.095700    1.922315
     29          6           0       -1.226475   -0.613015   -1.049093
     30          1           0       -1.081502   -1.548335   -1.602602
     31          1           0       -1.750045    0.065138   -1.728369
 ---------------------------------------------------------------------

 SCF Done:  E(RM06) =  -613.584437698     A.U. after    9 cycles

      1  C    Isotropic =     0.1569   Anisotropy =   131.7166

      2  C    Isotropic =   124.0046   Anisotropy =    29.6304

      3  H    Isotropic =    28.0022   Anisotropy =     4.4040

      4  C    Isotropic =   150.9170   Anisotropy =    42.3565

      5  H    Isotropic =    30.9323   Anisotropy =     9.8903

      6  H    Isotropic =    31.0696   Anisotropy =     9.4232

      7  H    Isotropic =    31.3179   Anisotropy =     7.4969

      8  O    Isotropic =   -86.0300   Anisotropy =   670.4105

      9  N    Isotropic =   111.2040   Anisotropy =   138.5033

     10  H    Isotropic =    26.2460   Anisotropy =     8.7455

     11  N    Isotropic =   142.6921   Anisotropy =   117.8519

     12  H    Isotropic =    27.0866   Anisotropy =     6.9784

     13  C    Isotropic =   150.0335   Anisotropy =    38.8753

     14  H    Isotropic =    29.2198   Anisotropy =     8.8282

     15  H    Isotropic =    28.8576   Anisotropy =     9.2238

     16  H    Isotropic =    29.7600   Anisotropy =     9.0325

     17  C    Isotropic =     2.9255   Anisotropy =   131.6424

     18  C    Isotropic =   156.0423   Anisotropy =    40.9890

     19  H    Isotropic =    30.6393   Anisotropy =     5.2946

     20  H    Isotropic =    30.0465   Anisotropy =     7.4505

     21  H    Isotropic =    29.8335   Anisotropy =     6.5533

     22  O    Isotropic =  -101.6773   Anisotropy =   664.3582

     23  C    Isotropic =   151.7038   Anisotropy =     7.5181

     24  H    Isotropic =    30.5016   Anisotropy =     5.9305

     25  C    Isotropic =   154.9751   Anisotropy =    31.5111

     26  H    Isotropic =    31.7446   Anisotropy =     6.5881

     27  H    Isotropic =    29.9806   Anisotropy =     6.3630

     28  H    Isotropic =    30.9545   Anisotropy =     9.5723

     29  C    Isotropic =   136.2477   Anisotropy =    23.5716

     30  H    Isotropic =    30.8982   Anisotropy =     4.9548

     31  H    Isotropic =    30.1854   Anisotropy =     5.7353

 The electronic state is 1-A.
 Alpha  occ. eigenvalues --  -19.17260 -19.16509 -14.41942 -14.41462 -10.33402
 Alpha  occ. eigenvalues --  -10.33274 -10.29228 -10.27084 -10.25734 -10.25305
 Alpha  occ. eigenvalues --  -10.23710 -10.23401 -10.23142  -1.05393  -1.04058
 Alpha  occ. eigenvalues --   -0.94358  -0.94174  -0.83996  -0.78601  -0.74318
 Alpha  occ. eigenvalues --   -0.71999  -0.70280  -0.66069  -0.60988  -0.59555
 Alpha  occ. eigenvalues --   -0.58347  -0.54567  -0.50904  -0.49670  -0.48684
 Alpha  occ. eigenvalues --   -0.46818  -0.46332  -0.45354  -0.44847  -0.44426
 Alpha  occ. eigenvalues --   -0.42505  -0.41364  -0.40799  -0.40352  -0.40240
 Alpha  occ. eigenvalues --   -0.40109  -0.38669  -0.37518  -0.36542  -0.35141
 Alpha  occ. eigenvalues --   -0.34680  -0.33937  -0.28208  -0.27536  -0.26120
 Alpha  occ. eigenvalues --   -0.25981
 Alpha virt. eigenvalues --    0.01055   0.02789   0.02855   0.03858   0.04505
 Alpha virt. eigenvalues --    0.05015   0.06382   0.07425   0.07756   0.08532
 Alpha virt. eigenvalues --    0.09439   0.10594   0.10778   0.11852   0.12092

 Mulliken charges:
               1
     1  C    0.286446
     2  C   -0.160751
     3  H    0.223973
     4  C   -0.418656
     5  H    0.137272
     6  H    0.132491
     7  H    0.144561
     8  O   -0.396084
     9  N   -0.204115
    10  H    0.176267
    11  N   -0.120745
    12  H    0.124289
    13  C   -0.174130
    14  H    0.107670
    15  H    0.123907
    16  H    0.086429
    17  C    0.302322
    18  C   -0.318936
    19  H    0.093815
    20  H    0.114628
    21  H    0.121638
    22  O   -0.407664
    23  C   -0.108802
    24  H    0.187060
    25  C   -0.499496
    26  H    0.151534
    27  H    0.170407
    28  H    0.145723
    29  C   -0.420681
    30  H    0.206521
    31  H    0.193108
 Sum of Mulliken charges =   0.00000

 Dipole moment (field-independent basis, Debye):
    X=             -3.4202    Y=             -1.4210    Z=             -2.1486  Tot=              4.2818
 Quadrupole moment (field-independent basis, Debye-Ang):
   XX=            -85.2483   YY=            -69.0849   ZZ=            -82.1257
   XY=             -9.6516   XZ=              3.0426   YZ=             -4.1666

 Normal termination of Gaussian 09 at Wed Jun 18 02:28:26 2014.
