 Gaussian 09, Revision D.01,
 Gaussian 09:  EM64L-G09RevD.01 24-Apr-2013

 ----------------------------------------------------------------------
 #p nmr=(giao,mixed,spinspin) m06/cc-pvtz scf=tight integral=(grid=ultr
 afine)
 ----------------------------------------------------------------------

 ------------------
 NMR spin-spin scan
 ------------------
 Symbolic Z-matrix:
 Charge =  0 Multiplicity = 1

 SCF Done:  E(RM06) =  -613.619161189     A.U. after   16 cycles
 Normal termination of Gaussian 09 at Wed Jun 18 13:40:32 2014.

 ----------------------------------------------------------------------
 #P Geom=AllCheck Guess=TCheck SCRF=Check GenChk RM06/ChkBas NMR=ReadFC
  IOp(3/6=22)
 ----------------------------------------------------------------------

 Structure from the checkpoint file:  "/home/ztw1e12/leucine_scan/leucine_chi2_scan/Gau-13343.chk"
 ------------------
 NMR spin-spin scan
 ------------------
 Charge =  0 Multiplicity = 1

                         Standard orientation:
 ---------------------------------------------------------------------
 Center     Atomic      Atomic             Coordinates (Angstroms)
 Number     Number       Type             X           Y           Z
 ---------------------------------------------------------------------
      1          6           0       -0.190365    1.154419    0.049415
      2          6           0        0.253284   -0.084329   -0.730114
      3          1           0        0.623878    0.305042   -1.683613
      4          6           0       -1.546844   -1.110213    1.453231
      5          1           0       -2.117969   -1.705630    2.168554
      6          1           0       -0.525470   -1.049790    1.829596
      7          1           0       -1.973841   -0.102698    1.469184
      8          8           0        0.377901    1.533642    1.068225
      9          7           0        1.368259   -0.738242   -0.087875
     10          1           0        1.184510   -1.519047    0.523165
     11          7           0       -1.209763    1.831292   -0.492194
     12          1           0       -1.673943    1.458507   -1.303920
     13          6           0       -1.774861    2.988264    0.162838
     14          1           0       -2.135294    2.736334    1.162192
     15          1           0       -1.038608    3.786575    0.258009
     16          1           0       -2.609653    3.353290   -0.427832
     17          6           0        2.627083   -0.272161   -0.166042
     18          6           0        3.657111   -1.023377    0.612249
     19          1           0        3.264003   -1.911540    1.102647
     20          1           0        4.469215   -1.306403   -0.056489
     21          1           0        4.074529   -0.355837    1.366542
     22          8           0        2.924480    0.710069   -0.843894
     23          6           0       -1.645340   -1.751829    0.079219
     24          1           0       -1.237038   -2.763016    0.190992
     25          6           0       -3.098592   -1.886813   -0.333331
     26          1           0       -3.559385   -0.896935   -0.417335
     27          1           0       -3.195821   -2.380166   -1.302805
     28          1           0       -3.669380   -2.462913    0.397573
     29          6           0       -0.853563   -1.077804   -1.061392
     30          1           0       -0.413799   -1.849367   -1.696139
     31          1           0       -1.561937   -0.554385   -1.710917
 ---------------------------------------------------------------------

 SCF Done:  E(RM06) =  -613.575523939     A.U. after   10 cycles

      1  C    Isotropic =    -0.1287   Anisotropy =   130.6539

      2  C    Isotropic =   127.2071   Anisotropy =    33.9046

      3  H    Isotropic =    27.5384   Anisotropy =     4.6648

      4  C    Isotropic =   156.8897   Anisotropy =    22.4490

      5  H    Isotropic =    31.1409   Anisotropy =     9.4343

      6  H    Isotropic =    30.7800   Anisotropy =     6.5504

      7  H    Isotropic =    31.3096   Anisotropy =     5.9386

      8  O    Isotropic =  -108.2271   Anisotropy =   695.1763

      9  N    Isotropic =   118.1189   Anisotropy =   130.5969

     10  H    Isotropic =    26.4965   Anisotropy =     8.6245

     11  N    Isotropic =   145.3266   Anisotropy =   106.9556

     12  H    Isotropic =    26.8837   Anisotropy =     6.6402

     13  C    Isotropic =   149.9091   Anisotropy =    38.1810

     14  H    Isotropic =    29.1663   Anisotropy =     8.3527

     15  H    Isotropic =    28.9532   Anisotropy =     9.8602

     16  H    Isotropic =    29.7187   Anisotropy =     8.9147

     17  C    Isotropic =     3.0826   Anisotropy =   131.0960

     18  C    Isotropic =   155.5027   Anisotropy =    41.5210

     19  H    Isotropic =    30.6302   Anisotropy =     5.3634

     20  H    Isotropic =    29.9901   Anisotropy =     7.3538

     21  H    Isotropic =    29.6821   Anisotropy =     6.5565

     22  O    Isotropic =   -97.4646   Anisotropy =   665.4425

     23  C    Isotropic =   154.7071   Anisotropy =    13.5093

     24  H    Isotropic =    30.2478   Anisotropy =     7.6597

     25  C    Isotropic =   150.0276   Anisotropy =    38.4617

     26  H    Isotropic =    31.2751   Anisotropy =     5.9209

     27  H    Isotropic =    30.7965   Anisotropy =     9.3246

     28  H    Isotropic =    30.9531   Anisotropy =    10.4222

     29  C    Isotropic =   140.8904   Anisotropy =    30.0966

     30  H    Isotropic =    29.8477   Anisotropy =     6.4030

     31  H    Isotropic =    30.6555   Anisotropy =     4.0467

 The electronic state is 1-A.
 Alpha  occ. eigenvalues --  -19.17351 -19.16205 -14.42107 -14.41366 -10.33563
 Alpha  occ. eigenvalues --  -10.33112 -10.29224 -10.27329 -10.26041 -10.25935
 Alpha  occ. eigenvalues --  -10.24042 -10.23547 -10.23465  -1.05448  -1.03875
 Alpha  occ. eigenvalues --   -0.94502  -0.94168  -0.84120  -0.78692  -0.74218
 Alpha  occ. eigenvalues --   -0.72169  -0.70779  -0.66685  -0.60566  -0.59991
 Alpha  occ. eigenvalues --   -0.58539  -0.55188  -0.50668  -0.49306  -0.48406
 Alpha  occ. eigenvalues --   -0.47459  -0.46564  -0.45359  -0.45174  -0.44360
 Alpha  occ. eigenvalues --   -0.42709  -0.41800  -0.41228  -0.40585  -0.40350
 Alpha  occ. eigenvalues --   -0.39951  -0.38654  -0.38274  -0.36492  -0.35560
 Alpha  occ. eigenvalues --   -0.34824  -0.33523  -0.28213  -0.27639  -0.26275
 Alpha  occ. eigenvalues --   -0.25602
 Alpha virt. eigenvalues --    0.00869   0.02048   0.02502   0.03734   0.04517
 Alpha virt. eigenvalues --    0.04729   0.06667   0.07009   0.07551   0.08064
 Alpha virt. eigenvalues --    0.09160   0.10124   0.10805   0.11374   0.11972

 Mulliken charges:
               1
     1  C    0.283198
     2  C   -0.123581
     3  H    0.228930
     4  C   -0.495838
     5  H    0.153078
     6  H    0.172386
     7  H    0.173297
     8  O   -0.382507
     9  N   -0.190570
    10  H    0.158679
    11  N   -0.155692
    12  H    0.142404
    13  C   -0.186940
    14  H    0.114924
    15  H    0.126005
    16  H    0.087934
    17  C    0.304933
    18  C   -0.319906
    19  H    0.091186
    20  H    0.114543
    21  H    0.122592
    22  O   -0.406595
    23  C   -0.124707
    24  H    0.176901
    25  C   -0.434068
    26  H    0.141356
    27  H    0.139695
    28  H    0.141078
    29  C   -0.444654
    30  H    0.195870
    31  H    0.196067
 Sum of Mulliken charges =   0.00000

 Dipole moment (field-independent basis, Debye):
    X=             -4.2770    Y=             -3.1267    Z=             -0.7664  Tot=              5.3532
 Quadrupole moment (field-independent basis, Debye-Ang):
   XX=            -81.1752   YY=            -76.7352   ZZ=            -81.6149
   XY=            -11.9635   XZ=              6.6065   YZ=             -3.3821

 Normal termination of Gaussian 09 at Wed Jun 18 17:36:49 2014.
