 Gaussian 09, Revision D.01,
 Gaussian 09:  EM64L-G09RevD.01 24-Apr-2013

 ----------------------------------------------------------------------
 #p nmr=(giao,mixed,spinspin) m06/cc-pvtz scf=tight integral=(grid=ultr
 afine)
 ----------------------------------------------------------------------

 ------------------
 NMR spin-spin scan
 ------------------
 Symbolic Z-matrix:
 Charge =  0 Multiplicity = 1

 SCF Done:  E(RM06) =  -613.620389769     A.U. after   16 cycles
 Normal termination of Gaussian 09 at Wed Jun 18 09:43:13 2014.

 ----------------------------------------------------------------------
 #P Geom=AllCheck Guess=TCheck SCRF=Check GenChk RM06/ChkBas NMR=ReadFC
  IOp(3/6=22)
 ----------------------------------------------------------------------

 Structure from the checkpoint file:  "/home/ztw1e12/leucine_scan/leucine_chi2_scan/Gau-22005.chk"
 ------------------
 NMR spin-spin scan
 ------------------
 Charge =  0 Multiplicity = 1

                         Standard orientation:
 ---------------------------------------------------------------------
 Center     Atomic      Atomic             Coordinates (Angstroms)
 Number     Number       Type             X           Y           Z
 ---------------------------------------------------------------------
      1          6           0       -0.310783    1.033058    0.141732
      2          6           0        0.191066   -0.030515   -0.832249
      3          1           0        0.488882    0.510610   -1.736173
      4          6           0       -0.963810   -2.188189    1.052694
      5          1           0       -1.617817   -2.803552    1.674175
      6          1           0       -0.040089   -2.756977    0.921703
      7          1           0       -0.735040   -1.281638    1.612641
      8          8           0       -0.106241    0.995400    1.351427
      9          7           0        1.360951   -0.708071   -0.332326
     10          1           0        1.294544   -1.675939   -0.062178
     11          7           0       -1.006385    2.020077   -0.435141
     12          1           0       -1.174326    1.981843   -1.428064
     13          6           0       -1.677748    3.028571    0.351866
     14          1           0       -2.419567    2.582339    1.017149
     15          1           0       -0.965852    3.586009    0.960390
     16          1           0       -2.179107    3.721749   -0.316553
     17          6           0        2.514912   -0.050982   -0.126739
     18          6           0        3.645226   -0.847350    0.437109
     19          1           0        3.413439   -1.904683    0.544712
     20          1           0        4.515755   -0.729653   -0.207133
     21          1           0        3.904866   -0.438751    1.413908
     22          8           0        2.637229    1.144523   -0.392201
     23          6           0       -1.669020   -1.878054   -0.257999
     24          1           0       -1.867532   -2.824917   -0.767265
     25          6           0       -3.013614   -1.242245    0.074809
     26          1           0       -2.871783   -0.294121    0.605426
     27          1           0       -3.596690   -1.036236   -0.824943
     28          1           0       -3.608623   -1.890539    0.721601
     29          6           0       -0.913957   -0.992082   -1.272105
     30          1           0       -0.440455   -1.640069   -2.015490
     31          1           0       -1.644099   -0.402169   -1.830141
 ---------------------------------------------------------------------

 SCF Done:  E(RM06) =  -613.576710470     A.U. after    9 cycles

      1  C    Isotropic =    -1.2337   Anisotropy =   133.6167

      2  C    Isotropic =   124.4673   Anisotropy =    29.1468

      3  H    Isotropic =    28.0436   Anisotropy =     4.3860

      4  C    Isotropic =   158.9240   Anisotropy =    21.6656

      5  H    Isotropic =    31.1641   Anisotropy =     9.5863

      6  H    Isotropic =    31.2052   Anisotropy =     7.9124

      7  H    Isotropic =    29.8152   Anisotropy =     6.9248

      8  O    Isotropic =   -91.2281   Anisotropy =   678.3800

      9  N    Isotropic =   113.1827   Anisotropy =   132.5878

     10  H    Isotropic =    26.0461   Anisotropy =     8.3410

     11  N    Isotropic =   141.8277   Anisotropy =   116.6809

     12  H    Isotropic =    26.9661   Anisotropy =     6.5905

     13  C    Isotropic =   149.8326   Anisotropy =    38.5403

     14  H    Isotropic =    29.2373   Anisotropy =     8.3174

     15  H    Isotropic =    28.8314   Anisotropy =     9.3011

     16  H    Isotropic =    29.7457   Anisotropy =     9.0521

     17  C    Isotropic =     3.0286   Anisotropy =   131.4609

     18  C    Isotropic =   155.9711   Anisotropy =    41.1352

     19  H    Isotropic =    30.6266   Anisotropy =     5.3698

     20  H    Isotropic =    30.0524   Anisotropy =     7.4903

     21  H    Isotropic =    29.8040   Anisotropy =     6.4380

     22  O    Isotropic =  -102.2026   Anisotropy =   666.4429

     23  C    Isotropic =   152.7979   Anisotropy =    16.7891

     24  H    Isotropic =    30.2514   Anisotropy =     8.7824

     25  C    Isotropic =   149.0834   Anisotropy =    39.7483

     26  H    Isotropic =    30.9011   Anisotropy =     4.8119

     27  H    Isotropic =    31.1355   Anisotropy =     8.7887

     28  H    Isotropic =    31.1195   Anisotropy =     9.9327

     29  C    Isotropic =   142.0001   Anisotropy =    16.9369

     30  H    Isotropic =    29.8994   Anisotropy =     7.2606

     31  H    Isotropic =    30.4320   Anisotropy =     4.9883

 The electronic state is 1-A.
 Alpha  occ. eigenvalues --  -19.17391 -19.16515 -14.41927 -14.41463 -10.33507
 Alpha  occ. eigenvalues --  -10.33292 -10.29378 -10.27086 -10.25765 -10.25551
 Alpha  occ. eigenvalues --  -10.23713 -10.23203 -10.22824  -1.05475  -1.04104
 Alpha  occ. eigenvalues --   -0.94407  -0.94180  -0.83592  -0.78575  -0.74323
 Alpha  occ. eigenvalues --   -0.72069  -0.69944  -0.66430  -0.60787  -0.59600
 Alpha  occ. eigenvalues --   -0.58076  -0.54788  -0.50739  -0.49505  -0.48100
 Alpha  occ. eigenvalues --   -0.46833  -0.46474  -0.45366  -0.45090  -0.44453
 Alpha  occ. eigenvalues --   -0.42516  -0.41418  -0.40956  -0.40553  -0.40113
 Alpha  occ. eigenvalues --   -0.39646  -0.38591  -0.37745  -0.36541  -0.35264
 Alpha  occ. eigenvalues --   -0.34192  -0.33160  -0.28348  -0.27554  -0.26126
 Alpha  occ. eigenvalues --   -0.25933
 Alpha virt. eigenvalues --    0.01025   0.02392   0.02573   0.03716   0.04784
 Alpha virt. eigenvalues --    0.04907   0.06904   0.07443   0.07736   0.08338
 Alpha virt. eigenvalues --    0.10067   0.10731   0.10795   0.11679   0.12253

 Mulliken charges:
               1
     1  C    0.242864
     2  C   -0.133207
     3  H    0.228103
     4  C   -0.496087
     5  H    0.141256
     6  H    0.134262
     7  H    0.195183
     8  O   -0.385788
     9  N   -0.200738
    10  H    0.171613
    11  N   -0.104414
    12  H    0.125287
    13  C   -0.183349
    14  H    0.111485
    15  H    0.127770
    16  H    0.087519
    17  C    0.303552
    18  C   -0.318651
    19  H    0.093467
    20  H    0.114004
    21  H    0.121837
    22  O   -0.406598
    23  C   -0.085170
    24  H    0.156909
    25  C   -0.448680
    26  H    0.166413
    27  H    0.135926
    28  H    0.142442
    29  C   -0.420710
    30  H    0.190792
    31  H    0.192710
 Sum of Mulliken charges =   0.00000

 Dipole moment (field-independent basis, Debye):
    X=             -2.7356    Y=             -2.4478    Z=             -2.4849  Tot=              4.4328
 Quadrupole moment (field-independent basis, Debye-Ang):
   XX=            -79.0910   YY=            -74.9799   ZZ=            -81.5978
   XY=            -12.0415   XZ=              4.0838   YZ=             -2.7685

 Normal termination of Gaussian 09 at Wed Jun 18 13:41:57 2014.
