 Gaussian 09, Revision D.01,
 Gaussian 09:  EM64L-G09RevD.01 24-Apr-2013

 ----------------------------------------------------------------------
 #p nmr=(giao,mixed,spinspin) m06/cc-pvtz scf=tight integral=(grid=ultr
 afine)
 ----------------------------------------------------------------------

 ------------------
 NMR spin-spin scan
 ------------------
 Symbolic Z-matrix:
 Charge =  0 Multiplicity = 1

 SCF Done:  E(RM06) =  -613.625749187     A.U. after   15 cycles
 Normal termination of Gaussian 09 at Wed Jun 18 09:23:46 2014.

 ----------------------------------------------------------------------
 #P Geom=AllCheck Guess=TCheck SCRF=Check GenChk RM06/ChkBas NMR=ReadFC
  IOp(3/6=22)
 ----------------------------------------------------------------------

 Structure from the checkpoint file:  "/home/ztw1e12/leucine_scan/leucine_chi2_scan/Gau-32202.chk"
 ------------------
 NMR spin-spin scan
 ------------------
 Charge =  0 Multiplicity = 1

                         Standard orientation:
 ---------------------------------------------------------------------
 Center     Atomic      Atomic             Coordinates (Angstroms)
 Number     Number       Type             X           Y           Z
 ---------------------------------------------------------------------
      1          6           0        0.410749    0.987312   -0.124162
      2          6           0       -0.201859   -0.020276    0.840317
      3          1           0       -0.487389    0.541991    1.734677
      4          6           0        0.783060   -2.563356   -0.789889
      5          1           0        1.412495   -3.218089   -1.395896
      6          1           0       -0.016747   -3.178444   -0.368503
      7          1           0        0.335970   -1.831535   -1.467403
      8          8           0        0.214787    0.957245   -1.335663
      9          7           0       -1.408544   -0.596687    0.294954
     10          1           0       -1.403354   -1.557814   -0.007077
     11          7           0        1.188566    1.906350    0.457951
     12          1           0        1.344001    1.847459    1.452102
     13          6           0        1.978278    2.832942   -0.319948
     14          1           0        2.689198    2.306880   -0.960588
     15          1           0        1.342495    3.452203   -0.952420
     16          1           0        2.530048    3.478883    0.356266
     17          6           0       -2.506614    0.147094    0.081871
     18          6           0       -3.685166   -0.557149   -0.505419
     19          1           0       -3.503981   -1.612313   -0.698406
     20          1           0       -4.529278   -0.455215    0.176399
     21          1           0       -3.958799   -0.063239   -1.437711
     22          8           0       -2.546000    1.343555    0.368428
     23          6           0        1.609453   -1.890451    0.291590
     24          1           0        2.070891   -2.686600    0.886685
     25          6           0        2.747599   -1.094173   -0.327088
     26          1           0        2.386405   -0.328322   -1.017023
     27          1           0        3.357781   -0.605796    0.435977
     28          1           0        3.399603   -1.755562   -0.901753
     29          6           0        0.786873   -1.093231    1.306776
     30          1           0        0.203467   -1.793818    1.911815
     31          1           0        1.482505   -0.606992    1.996126
 ---------------------------------------------------------------------

 SCF Done:  E(RM06) =  -613.582117886     A.U. after    9 cycles

      1  C    Isotropic =    -1.3216   Anisotropy =   134.8263

      2  C    Isotropic =   125.4928   Anisotropy =    31.1249

      3  H    Isotropic =    27.9795   Anisotropy =     4.2616

      4  C    Isotropic =   157.6752   Anisotropy =    26.7911

      5  H    Isotropic =    30.9222   Anisotropy =     9.8893

      6  H    Isotropic =    31.1771   Anisotropy =     8.0604

      7  H    Isotropic =    30.3062   Anisotropy =     4.7647

      8  O    Isotropic =   -90.5678   Anisotropy =   677.0842

      9  N    Isotropic =   111.3146   Anisotropy =   136.3940

     10  H    Isotropic =    26.0614   Anisotropy =     8.9053

     11  N    Isotropic =   140.3602   Anisotropy =   115.7701

     12  H    Isotropic =    26.9746   Anisotropy =     6.4498

     13  C    Isotropic =   149.8018   Anisotropy =    38.8073

     14  H    Isotropic =    29.3033   Anisotropy =     7.8747

     15  H    Isotropic =    28.8209   Anisotropy =     9.4124

     16  H    Isotropic =    29.7480   Anisotropy =     9.1575

     17  C    Isotropic =     3.0566   Anisotropy =   131.3671

     18  C    Isotropic =   155.9492   Anisotropy =    41.0418

     19  H    Isotropic =    30.6343   Anisotropy =     5.2617

     20  H    Isotropic =    30.0365   Anisotropy =     7.3937

     21  H    Isotropic =    29.8421   Anisotropy =     6.6046

     22  O    Isotropic =  -100.1094   Anisotropy =   665.2197

     23  C    Isotropic =   150.5259   Anisotropy =    10.8553

     24  H    Isotropic =    30.2304   Anisotropy =     8.8167

     25  C    Isotropic =   156.2743   Anisotropy =    33.3448

     26  H    Isotropic =    30.5668   Anisotropy =     6.3407

     27  H    Isotropic =    31.3241   Anisotropy =     7.9447

     28  H    Isotropic =    31.1372   Anisotropy =     9.8520

     29  C    Isotropic =   139.3448   Anisotropy =     9.7991

     30  H    Isotropic =    30.2218   Anisotropy =     7.0152

     31  H    Isotropic =    30.1822   Anisotropy =     6.0631

 The electronic state is 1-A.
 Alpha  occ. eigenvalues --  -19.17357 -19.16425 -14.41986 -14.41349 -10.33495
 Alpha  occ. eigenvalues --  -10.33199 -10.29248 -10.27141 -10.25794 -10.25522
 Alpha  occ. eigenvalues --  -10.23657 -10.23374 -10.22885  -1.05449  -1.04013
 Alpha  occ. eigenvalues --   -0.94397  -0.94135  -0.83748  -0.78483  -0.74246
 Alpha  occ. eigenvalues --   -0.72137  -0.70255  -0.66589  -0.60814  -0.59578
 Alpha  occ. eigenvalues --   -0.57879  -0.54807  -0.50582  -0.49426  -0.48003
 Alpha  occ. eigenvalues --   -0.47118  -0.46476  -0.45424  -0.45324  -0.44549
 Alpha  occ. eigenvalues --   -0.42353  -0.41419  -0.40958  -0.40516  -0.40310
 Alpha  occ. eigenvalues --   -0.39518  -0.38418  -0.38132  -0.36468  -0.35329
 Alpha  occ. eigenvalues --   -0.34787  -0.32872  -0.28160  -0.27642  -0.26149
 Alpha  occ. eigenvalues --   -0.25922
 Alpha virt. eigenvalues --    0.00899   0.02575   0.02600   0.03740   0.04647
 Alpha virt. eigenvalues --    0.05201   0.06962   0.07418   0.07944   0.08612
 Alpha virt. eigenvalues --    0.09956   0.10703   0.11376   0.11671   0.12116

 Mulliken charges:
               1
     1  C    0.252466
     2  C   -0.158457
     3  H    0.229642
     4  C   -0.487862
     5  H    0.146257
     6  H    0.140045
     7  H    0.171842
     8  O   -0.384637
     9  N   -0.203082
    10  H    0.180943
    11  N   -0.103732
    12  H    0.123905
    13  C   -0.191842
    14  H    0.119013
    15  H    0.129578
    16  H    0.088844
    17  C    0.303490
    18  C   -0.319552
    19  H    0.093724
    20  H    0.114333
    21  H    0.120929
    22  O   -0.407644
    23  C   -0.089966
    24  H    0.162345
    25  C   -0.474789
    26  H    0.169443
    27  H    0.148054
    28  H    0.149599
    29  C   -0.414552
    30  H    0.196706
    31  H    0.194956
 Sum of Mulliken charges =   0.00000

 Dipole moment (field-independent basis, Debye):
    X=              2.6307    Y=             -2.7089    Z=              2.4620  Tot=              4.5078
 Quadrupole moment (field-independent basis, Debye-Ang):
   XX=            -77.1621   YY=            -76.9633   ZZ=            -81.3981
   XY=             12.1263   XZ=              4.5062   YZ=              2.5946

 Normal termination of Gaussian 09 at Wed Jun 18 13:25:40 2014.
