 Gaussian 09, Revision D.01,
 Gaussian 09:  EM64L-G09RevD.01 24-Apr-2013

 ----------------------------------------------------------------------
 #p nmr=(giao,mixed,spinspin) m06/cc-pvtz scf=tight integral=(grid=ultr
 afine)
 ----------------------------------------------------------------------

 ------------------
 NMR spin-spin scan
 ------------------
 Symbolic Z-matrix:
 Charge =  0 Multiplicity = 1

 SCF Done:  E(RM06) =  -613.623137863     A.U. after   15 cycles
 Normal termination of Gaussian 09 at Wed Jun 18 09:43:53 2014.

 ----------------------------------------------------------------------
 #P Geom=AllCheck Guess=TCheck SCRF=Check GenChk RM06/ChkBas NMR=ReadFC
  IOp(3/6=22)
 ----------------------------------------------------------------------

 Structure from the checkpoint file:  "/home/ztw1e12/leucine_scan/leucine_chi2_scan/Gau-31227.chk"
 ------------------
 NMR spin-spin scan
 ------------------
 Charge =  0 Multiplicity = 1

                         Standard orientation:
 ---------------------------------------------------------------------
 Center     Atomic      Atomic             Coordinates (Angstroms)
 Number     Number       Type             X           Y           Z
 ---------------------------------------------------------------------
      1          6           0        0.359790    1.000598   -0.141015
      2          6           0       -0.200309   -0.035043    0.829538
      3          1           0       -0.493293    0.520775    1.725969
      4          6           0        0.886680   -2.308603   -0.975828
      5          1           0        1.537220   -2.918862   -1.605812
      6          1           0        0.004713   -2.916691   -0.757933
      7          1           0        0.578186   -1.443659   -1.563748
      8          8           0        0.174332    0.959388   -1.353731
      9          7           0       -1.389285   -0.664290    0.310404
     10          1           0       -1.360650   -1.632900    0.035912
     11          7           0        1.083657    1.963743    0.441197
     12          1           0        1.229857    1.926248    1.437567
     13          6           0        1.805236    2.943370   -0.337430
     14          1           0        2.524213    2.465870   -1.006020
     15          1           0        1.123825    3.541967   -0.942134
     16          1           0        2.341529    3.603287    0.337616
     17          6           0       -2.516723    0.037609    0.106630
     18          6           0       -3.681290   -0.715949   -0.446444
     19          1           0       -3.472715   -1.771395   -0.607417
     20          1           0       -4.521792   -0.614463    0.239746
     21          1           0       -3.975978   -0.260172   -1.391553
     22          8           0       -2.591012    1.237247    0.371908
     23          6           0        1.638276   -1.894560    0.277980
     24          1           0        1.929836   -2.801472    0.815366
     25          6           0        2.917139   -1.181415   -0.143037
     26          1           0        2.694141   -0.279351   -0.722313
     27          1           0        3.515652   -0.884365    0.720611
     28          1           0        3.533180   -1.824390   -0.775317
     29          6           0        0.855719   -1.041438    1.290673
     30          1           0        0.325972   -1.710166    1.976303
     31          1           0        1.571821   -0.496927    1.910142
 ---------------------------------------------------------------------

 SCF Done:  E(RM06) =  -613.579460740     A.U. after    9 cycles

      1  C    Isotropic =    -1.1500   Anisotropy =   134.0669

      2  C    Isotropic =   124.8696   Anisotropy =    29.6961

      3  H    Isotropic =    28.0212   Anisotropy =     4.3110

      4  C    Isotropic =   158.9776   Anisotropy =    22.4373

      5  H    Isotropic =    31.0948   Anisotropy =     9.6831

      6  H    Isotropic =    31.2525   Anisotropy =     8.0858

      7  H    Isotropic =    29.9007   Anisotropy =     6.2229

      8  O    Isotropic =   -90.2305   Anisotropy =   676.2072

      9  N    Isotropic =   112.3601   Anisotropy =   134.2195

     10  H    Isotropic =    26.0495   Anisotropy =     8.4914

     11  N    Isotropic =   141.6276   Anisotropy =   116.8821

     12  H    Isotropic =    26.9622   Anisotropy =     6.5487

     13  C    Isotropic =   149.8288   Anisotropy =    38.5800

     14  H    Isotropic =    29.2240   Anisotropy =     8.0764

     15  H    Isotropic =    28.8699   Anisotropy =     9.4681

     16  H    Isotropic =    29.7484   Anisotropy =     9.0952

     17  C    Isotropic =     3.0656   Anisotropy =   131.3433

     18  C    Isotropic =   155.9751   Anisotropy =    41.0528

     19  H    Isotropic =    30.6312   Anisotropy =     5.3356

     20  H    Isotropic =    30.0372   Anisotropy =     7.4150

     21  H    Isotropic =    29.8367   Anisotropy =     6.5761

     22  O    Isotropic =  -101.1695   Anisotropy =   665.6390

     23  C    Isotropic =   151.8230   Anisotropy =    14.8750

     24  H    Isotropic =    30.2617   Anisotropy =     8.8911

     25  C    Isotropic =   151.1626   Anisotropy =    38.2807

     26  H    Isotropic =    30.8168   Anisotropy =     5.1829

     27  H    Isotropic =    31.2428   Anisotropy =     8.6199

     28  H    Isotropic =    31.1128   Anisotropy =     9.8576

     29  C    Isotropic =   141.0597   Anisotropy =    13.6871

     30  H    Isotropic =    30.0173   Anisotropy =     7.2958

     31  H    Isotropic =    30.3443   Anisotropy =     5.4114

 The electronic state is 1-A.
 Alpha  occ. eigenvalues --  -19.17401 -19.16520 -14.41938 -14.41459 -10.33505
 Alpha  occ. eigenvalues --  -10.33294 -10.29337 -10.27109 -10.25753 -10.25490
 Alpha  occ. eigenvalues --  -10.23729 -10.23054 -10.22934  -1.05475  -1.04108
 Alpha  occ. eigenvalues --   -0.94404  -0.94184  -0.83647  -0.78531  -0.74320
 Alpha  occ. eigenvalues --   -0.72087  -0.69973  -0.66487  -0.60798  -0.59591
 Alpha  occ. eigenvalues --   -0.57985  -0.54824  -0.50692  -0.49508  -0.48083
 Alpha  occ. eigenvalues --   -0.46910  -0.46402  -0.45383  -0.45277  -0.44464
 Alpha  occ. eigenvalues --   -0.42420  -0.41375  -0.40977  -0.40539  -0.40160
 Alpha  occ. eigenvalues --   -0.39501  -0.38660  -0.37861  -0.36539  -0.35237
 Alpha  occ. eigenvalues --   -0.34338  -0.33090  -0.28316  -0.27579  -0.26137
 Alpha  occ. eigenvalues --   -0.25967
 Alpha virt. eigenvalues --    0.00996   0.02440   0.02607   0.03724   0.04794
 Alpha virt. eigenvalues --    0.05056   0.06943   0.07457   0.07768   0.08473
 Alpha virt. eigenvalues --    0.10136   0.10745   0.11094   0.11746   0.12243

 Mulliken charges:
               1
     1  C    0.238187
     2  C   -0.142320
     3  H    0.229403
     4  C   -0.497694
     5  H    0.142588
     6  H    0.135235
     7  H    0.188963
     8  O   -0.384672
     9  N   -0.200981
    10  H    0.175672
    11  N   -0.099605
    12  H    0.124684
    13  C   -0.185799
    14  H    0.115869
    15  H    0.127418
    16  H    0.087398
    17  C    0.303212
    18  C   -0.318872
    19  H    0.093904
    20  H    0.114182
    21  H    0.121056
    22  O   -0.407126
    23  C   -0.078106
    24  H    0.156769
    25  C   -0.460116
    26  H    0.168449
    27  H    0.140737
    28  H    0.144913
    29  C   -0.419985
    30  H    0.192425
    31  H    0.194210
 Sum of Mulliken charges =   0.00000

 Dipole moment (field-independent basis, Debye):
    X=              2.5784    Y=             -2.5263    Z=              2.5296  Tot=              4.4079
 Quadrupole moment (field-independent basis, Debye-Ang):
   XX=            -78.1101   YY=            -75.8404   ZZ=            -81.5515
   XY=             12.0963   XZ=              4.1734   YZ=              2.6800

 Normal termination of Gaussian 09 at Wed Jun 18 13:44:04 2014.
