 Gaussian 09, Revision D.01,
 Gaussian 09:  EM64L-G09RevD.01 24-Apr-2013

 ----------------------------------------------------------------------
 #p nmr=(giao,mixed,spinspin) m06/cc-pvtz scf=tight integral=(grid=ultr
 afine)
 ----------------------------------------------------------------------

 ------------------
 NMR spin-spin scan
 ------------------
 Symbolic Z-matrix:
 Charge =  0 Multiplicity = 1

 SCF Done:  E(RM06) =  -613.625009649     A.U. after   15 cycles
 Normal termination of Gaussian 09 at Wed Jun 18 09:25:21 2014.

 ----------------------------------------------------------------------
 #P Geom=AllCheck Guess=TCheck SCRF=Check GenChk RM06/ChkBas NMR=ReadFC
  IOp(3/6=22)
 ----------------------------------------------------------------------

 Structure from the checkpoint file:  "/home/ztw1e12/leucine_scan/leucine_chi2_scan/Gau-21519.chk"
 ------------------
 NMR spin-spin scan
 ------------------
 Charge =  0 Multiplicity = 1

                         Standard orientation:
 ---------------------------------------------------------------------
 Center     Atomic      Atomic             Coordinates (Angstroms)
 Number     Number       Type             X           Y           Z
 ---------------------------------------------------------------------
      1          6           0        0.396957    0.982388   -0.131774
      2          6           0       -0.203834   -0.028431    0.838677
      3          1           0       -0.486598    0.536513    1.732555
      4          6           0        0.807645   -2.427395   -0.893319
      5          1           0        1.440848   -3.059190   -1.519632
      6          1           0       -0.042710   -3.039219   -0.580154
      7          1           0        0.436264   -1.615328   -1.520879
      8          8           0        0.217483    0.938752   -1.345372
      9          7           0       -1.407521   -0.621191    0.308169
     10          1           0       -1.406917   -1.594397    0.047854
     11          7           0        1.151275    1.921467    0.450140
     12          1           0        1.290975    1.880984    1.447401
     13          6           0        1.919757    2.865760   -0.327505
     14          1           0        2.632449    2.355333   -0.978286
     15          1           0        1.269959    3.480954   -0.949947
     16          1           0        2.468063    3.514235    0.349066
     17          6           0       -2.511291    0.112718    0.090316
     18          6           0       -3.693648   -0.609923   -0.466196
     19          1           0       -3.508739   -1.667852   -0.639492
     20          1           0       -4.529057   -0.498570    0.224827
     21          1           0       -3.982690   -0.137306   -1.404730
     22          8           0       -2.551376    1.315906    0.347226
     23          6           0        1.607606   -1.900755    0.285687
     24          1           0        1.982232   -2.761994    0.848220
     25          6           0        2.822405   -1.141521   -0.229273
     26          1           0        2.534218   -0.304318   -0.871155
     27          1           0        3.425778   -0.744215    0.589909
     28          1           0        3.458317   -1.796497   -0.828700
     29          6           0        0.808561   -1.078063    1.303877
     30          1           0        0.241307   -1.763761    1.941142
     31          1           0        1.516218   -0.573252    1.966068
 ---------------------------------------------------------------------

 SCF Done:  E(RM06) =  -613.581364583     A.U. after    9 cycles

      1  C    Isotropic =    -1.0825   Anisotropy =   134.3647

      2  C    Isotropic =   125.2245   Anisotropy =    30.1516

      3  H    Isotropic =    28.0218   Anisotropy =     4.3273

      4  C    Isotropic =   158.5727   Anisotropy =    23.8694

      5  H    Isotropic =    31.0114   Anisotropy =     9.8000

      6  H    Isotropic =    31.2580   Anisotropy =     8.0964

      7  H    Isotropic =    30.0669   Anisotropy =     5.3892

      8  O    Isotropic =   -89.6473   Anisotropy =   675.6918

      9  N    Isotropic =   111.5226   Anisotropy =   135.4255

     10  H    Isotropic =    26.0882   Anisotropy =     8.6167

     11  N    Isotropic =   141.0391   Anisotropy =   116.5539

     12  H    Isotropic =    26.9666   Anisotropy =     6.5005

     13  C    Isotropic =   149.8116   Anisotropy =    38.7580

     14  H    Isotropic =    29.2603   Anisotropy =     7.9224

     15  H    Isotropic =    28.8581   Anisotropy =     9.4822

     16  H    Isotropic =    29.7514   Anisotropy =     9.1412

     17  C    Isotropic =     3.1473   Anisotropy =   131.2311

     18  C    Isotropic =   155.9944   Anisotropy =    41.0092

     19  H    Isotropic =    30.6334   Anisotropy =     5.3014

     20  H    Isotropic =    30.0369   Anisotropy =     7.3986

     21  H    Isotropic =    29.8464   Anisotropy =     6.6139

     22  O    Isotropic =  -100.7796   Anisotropy =   665.0872

     23  C    Isotropic =   151.0595   Anisotropy =    12.5652

     24  H    Isotropic =    30.2513   Anisotropy =     8.9091

     25  C    Isotropic =   153.7184   Anisotropy =    36.1360

     26  H    Isotropic =    30.7071   Anisotropy =     5.7362

     27  H    Isotropic =    31.3160   Anisotropy =     8.2971

     28  H    Isotropic =    31.1078   Anisotropy =     9.8602

     29  C    Isotropic =   139.9680   Anisotropy =    11.1373

     30  H    Isotropic =    30.1388   Anisotropy =     7.2142

     31  H    Isotropic =    30.2651   Anisotropy =     5.7946

 The electronic state is 1-A.
 Alpha  occ. eigenvalues --  -19.17381 -19.16487 -14.41954 -14.41429 -10.33503
 Alpha  occ. eigenvalues --  -10.33263 -10.29301 -10.27118 -10.25770 -10.25478
 Alpha  occ. eigenvalues --  -10.23712 -10.23090 -10.22932  -1.05460  -1.04072
 Alpha  occ. eigenvalues --   -0.94401  -0.94178  -0.83687  -0.78494  -0.74294
 Alpha  occ. eigenvalues --   -0.72107  -0.70060  -0.66539  -0.60833  -0.59589
 Alpha  occ. eigenvalues --   -0.57905  -0.54791  -0.50678  -0.49488  -0.48044
 Alpha  occ. eigenvalues --   -0.46992  -0.46380  -0.45404  -0.45352  -0.44483
 Alpha  occ. eigenvalues --   -0.42363  -0.41353  -0.40975  -0.40509  -0.40221
 Alpha  occ. eigenvalues --   -0.39427  -0.38602  -0.38000  -0.36518  -0.35229
 Alpha  occ. eigenvalues --   -0.34576  -0.32969  -0.28247  -0.27606  -0.26123
 Alpha  occ. eigenvalues --   -0.25975
 Alpha virt. eigenvalues --    0.00943   0.02483   0.02611   0.03726   0.04733
 Alpha virt. eigenvalues --    0.05174   0.06943   0.07502   0.07798   0.08560
 Alpha virt. eigenvalues --    0.10070   0.10793   0.11346   0.11730   0.12125

 Mulliken charges:
               1
     1  C    0.242804
     2  C   -0.147346
     3  H    0.229276
     4  C   -0.494737
     5  H    0.143952
     6  H    0.136862
     7  H    0.181974
     8  O   -0.384274
     9  N   -0.202474
    10  H    0.178305
    11  N   -0.100631
    12  H    0.124217
    13  C   -0.189238
    14  H    0.118880
    15  H    0.128150
    16  H    0.087799
    17  C    0.303211
    18  C   -0.319371
    19  H    0.094050
    20  H    0.114290
    21  H    0.120945
    22  O   -0.407379
    23  C   -0.079244
    24  H    0.159679
    25  C   -0.471098
    26  H    0.169613
    27  H    0.145059
    28  H    0.148004
    29  C   -0.422250
    30  H    0.194534
    31  H    0.196438
 Sum of Mulliken charges =   0.00000

 Dipole moment (field-independent basis, Debye):
    X=              2.5150    Y=             -2.6184    Z=              2.5690  Tot=              4.4476
 Quadrupole moment (field-independent basis, Debye-Ang):
   XX=            -77.3571   YY=            -76.5976   ZZ=            -81.4387
   XY=             12.1672   XZ=              4.2031   YZ=              2.5957

 Normal termination of Gaussian 09 at Wed Jun 18 13:26:54 2014.
