 Gaussian 09, Revision D.01,
 Gaussian 09:  EM64L-G09RevD.01 24-Apr-2013

 ----------------------------------------------------------------------
 #p nmr=(giao,mixed,spinspin) m06/cc-pvtz scf=tight integral=(grid=ultr
 afine)
 ----------------------------------------------------------------------

 ------------------
 NMR spin-spin scan
 ------------------
 Symbolic Z-matrix:
 Charge =  0 Multiplicity = 1

 SCF Done:  E(RM06) =  -613.621030349     A.U. after   16 cycles
 Normal termination of Gaussian 09 at Wed Jun 18 08:44:29 2014.

 ----------------------------------------------------------------------
 #P Geom=AllCheck Guess=TCheck SCRF=Check GenChk RM06/ChkBas NMR=ReadFC
  IOp(3/6=22)
 ----------------------------------------------------------------------

 Structure from the checkpoint file:  "/home/ztw1e12/leucine_scan/leucine_chi2_scan/Gau-4954.chk"
 ------------------
 NMR spin-spin scan
 ------------------
 Charge =  0 Multiplicity = 1

                         Standard orientation:
 ---------------------------------------------------------------------
 Center     Atomic      Atomic             Coordinates (Angstroms)
 Number     Number       Type             X           Y           Z
 ---------------------------------------------------------------------
      1          6           0        0.746521   -1.053019    0.084178
      2          6           0       -0.050441   -0.076139   -0.783410
      3          1           0       -0.263715   -0.626717   -1.704899
      4          6           0        0.077279    3.357257   -0.045197
      5          1           0        0.464418    4.167067    0.577044
      6          1           0       -0.174093    3.774334   -1.021957
      7          1           0       -0.854425    3.021303    0.419812
      8          8           0        0.421069   -1.345338    1.230429
      9          7           0       -1.323287    0.231474   -0.177182
     10          1           0       -1.402135    1.057980    0.394077
     11          7           0        1.811110   -1.598005   -0.514636
     12          1           0        2.020718   -1.353864   -1.469111
     13          6           0        2.689785   -2.504510    0.187991
     14          1           0        3.089588   -2.037058    1.089081
     15          1           0        2.169049   -3.417048    0.480655
     16          1           0        3.516793   -2.768894   -0.463965
     17          6           0       -2.311579   -0.679885   -0.104681
     18          6           0       -3.529807   -0.274928    0.657998
     19          1           0       -3.482471    0.744832    1.033938
     20          1           0       -4.401907   -0.383490    0.014081
     21          1           0       -3.657415   -0.959781    1.496571
     22          8           0       -2.228854   -1.778915   -0.649707
     23          6           0        1.105481    2.242926   -0.167111
     24          1           0        2.004114    2.712318   -0.581806
     25          6           0        1.484179    1.706533    1.200487
     26          1           0        0.624630    1.280644    1.723558
     27          1           0        2.261198    0.940341    1.147668
     28          1           0        1.869355    2.517798    1.821533
     29          6           0        0.709876    1.180690   -1.207675
     30          1           0        0.117912    1.663423   -1.989648
     31          1           0        1.618139    0.833003   -1.705157
 ---------------------------------------------------------------------

 SCF Done:  E(RM06) =  -613.577376614     A.U. after    9 cycles

      1  C    Isotropic =    -0.8522   Anisotropy =   131.6303

      2  C    Isotropic =   125.2002   Anisotropy =    34.7406

      3  H    Isotropic =    27.6701   Anisotropy =     4.2103

      4  C    Isotropic =   149.0541   Anisotropy =    38.1207

      5  H    Isotropic =    30.8204   Anisotropy =     9.9084

      6  H    Isotropic =    30.7789   Anisotropy =     8.8159

      7  H    Isotropic =    31.0622   Anisotropy =     5.4020

      8  O    Isotropic =  -104.3689   Anisotropy =   693.9236

      9  N    Isotropic =   117.2011   Anisotropy =   131.0474

     10  H    Isotropic =    26.2059   Anisotropy =     9.0060

     11  N    Isotropic =   144.4027   Anisotropy =   110.6632

     12  H    Isotropic =    27.0067   Anisotropy =     7.2191

     13  C    Isotropic =   149.8114   Anisotropy =    38.5234

     14  H    Isotropic =    29.0877   Anisotropy =     8.3948

     15  H    Isotropic =    28.9926   Anisotropy =     9.6977

     16  H    Isotropic =    29.7257   Anisotropy =     8.9788

     17  C    Isotropic =     2.2292   Anisotropy =   132.2637

     18  C    Isotropic =   155.5397   Anisotropy =    41.4170

     19  H    Isotropic =    30.5899   Anisotropy =     5.0240

     20  H    Isotropic =    29.9892   Anisotropy =     7.3739

     21  H    Isotropic =    29.7412   Anisotropy =     6.5825

     22  O    Isotropic =  -100.2331   Anisotropy =   671.8715

     23  C    Isotropic =   152.0960   Anisotropy =    12.9306

     24  H    Isotropic =    30.1580   Anisotropy =     8.2290

     25  C    Isotropic =   157.5894   Anisotropy =    21.2586

     26  H    Isotropic =    30.8835   Anisotropy =     5.0869

     27  H    Isotropic =    31.0292   Anisotropy =     7.3034

     28  H    Isotropic =    31.0828   Anisotropy =     9.5559

     29  C    Isotropic =   141.5862   Anisotropy =    16.6387

     30  H    Isotropic =    30.1912   Anisotropy =     5.9854

     31  H    Isotropic =    30.0235   Anisotropy =     6.6673

 The electronic state is 1-A.
 Alpha  occ. eigenvalues --  -19.17304 -19.16355 -14.42023 -14.41262 -10.33473
 Alpha  occ. eigenvalues --  -10.33144 -10.29181 -10.27226 -10.25766 -10.25735
 Alpha  occ. eigenvalues --  -10.24031 -10.23532 -10.23076  -1.05434  -1.03965
 Alpha  occ. eigenvalues --   -0.94375  -0.94094  -0.83808  -0.78568  -0.74221
 Alpha  occ. eigenvalues --   -0.72073  -0.70545  -0.66642  -0.60725  -0.59697
 Alpha  occ. eigenvalues --   -0.58133  -0.54966  -0.50063  -0.49311  -0.47960
 Alpha  occ. eigenvalues --   -0.47328  -0.47002  -0.45358  -0.45228  -0.44512
 Alpha  occ. eigenvalues --   -0.42463  -0.42255  -0.40843  -0.40408  -0.40049
 Alpha  occ. eigenvalues --   -0.39662  -0.38694  -0.38262  -0.36420  -0.35429
 Alpha  occ. eigenvalues --   -0.34620  -0.33210  -0.28278  -0.27490  -0.26312
 Alpha  occ. eigenvalues --   -0.25702
 Alpha virt. eigenvalues --    0.00918   0.02204   0.02702   0.03627   0.04334
 Alpha virt. eigenvalues --    0.04973   0.06906   0.07049   0.07973   0.08141
 Alpha virt. eigenvalues --    0.09288   0.09720   0.11433   0.11800   0.12140

 Mulliken charges:
               1
     1  C    0.285964
     2  C   -0.148387
     3  H    0.232045
     4  C   -0.434685
     5  H    0.143355
     6  H    0.140388
     7  H    0.141143
     8  O   -0.388153
     9  N   -0.212743
    10  H    0.179900
    11  N   -0.137563
    12  H    0.130781
    13  C   -0.178767
    14  H    0.113314
    15  H    0.122264
    16  H    0.086373
    17  C    0.303309
    18  C   -0.324439
    19  H    0.094852
    20  H    0.114838
    21  H    0.122432
    22  O   -0.405190
    23  C   -0.115800
    24  H    0.154484
    25  C   -0.478104
    26  H    0.171905
    27  H    0.160514
    28  H    0.149919
    29  C   -0.406145
    30  H    0.197825
    31  H    0.184371
 Sum of Mulliken charges =   0.00000

 Dipole moment (field-independent basis, Debye):
    X=              2.7774    Y=              3.6142    Z=             -1.5865  Tot=              4.8263
 Quadrupole moment (field-independent basis, Debye-Ang):
   XX=            -72.5183   YY=            -82.9493   ZZ=            -81.2717
   XY=            -10.2776   XZ=             -7.2865   YZ=              1.7612

 Normal termination of Gaussian 09 at Wed Jun 18 12:41:00 2014.
