 Gaussian 09, Revision D.01,
 Gaussian 09:  EM64L-G09RevD.01 24-Apr-2013

 ----------------------------------------------------------------------
 #p nmr=(giao,mixed,spinspin) m06/cc-pvtz scf=tight integral=(grid=ultr
 afine)
 ----------------------------------------------------------------------

 ------------------
 NMR spin-spin scan
 ------------------
 Symbolic Z-matrix:
 Charge =  0 Multiplicity = 1

 SCF Done:  E(RM06) =  -613.626763912     A.U. after   14 cycles
 Normal termination of Gaussian 09 at Wed Jun 18 22:08:06 2014.

 ----------------------------------------------------------------------
 #P Geom=AllCheck Guess=TCheck SCRF=Check GenChk RM06/ChkBas NMR=ReadFC
  IOp(3/6=22)
 ----------------------------------------------------------------------

 Structure from the checkpoint file:  "/home/ztw1e12/leucine_scan/leucine_chi2_scan/Gau-7203.chk"
 ------------------
 NMR spin-spin scan
 ------------------
 Charge =  0 Multiplicity = 1

                         Standard orientation:
 ---------------------------------------------------------------------
 Center     Atomic      Atomic             Coordinates (Angstroms)
 Number     Number       Type             X           Y           Z
 ---------------------------------------------------------------------
      1          6           0        0.009212    1.148431    0.086415
      2          6           0        0.220859   -0.075407   -0.795106
      3          1           0        0.596346    0.274665   -1.760890
      4          6           0       -2.924163   -0.278408    0.607035
      5          1           0       -3.426271   -0.583839    1.527174
      6          1           0       -2.533004    0.729710    0.762096
      7          1           0       -3.678559   -0.223347   -0.183621
      8          8           0        0.158622    1.123638    1.304760
      9          7           0        1.199422   -0.968586   -0.220667
     10          1           0        0.901332   -1.876177    0.104091
     11          7           0       -0.383809    2.244633   -0.570505
     12          1           0       -0.536650    2.181605   -1.564812
     13          6           0       -0.786508    3.442932    0.128926
     14          1           0       -1.637061    3.251740    0.786100
     15          1           0        0.030844    3.832971    0.734969
     16          1           0       -1.068685    4.197871   -0.598362
     17          6           0        2.476571   -0.595490   -0.039126
     18          6           0        3.382434   -1.600877    0.591410
     19          1           0        2.884729   -2.539857    0.823956
     20          1           0        4.217959   -1.791887   -0.081542
     21          1           0        3.792925   -1.176571    1.507538
     22          8           0        2.881365    0.514712   -0.383472
     23          6           0       -1.840752   -1.270091    0.220071
     24          1           0       -1.130375   -1.346458    1.050945
     25          6           0       -2.451958   -2.640807   -0.002604
     26          1           0       -3.142877   -2.616891   -0.851148
     27          1           0       -1.685063   -3.387927   -0.219123
     28          1           0       -3.013297   -2.973173    0.873037
     29          6           0       -1.089216   -0.817396   -1.036969
     30          1           0       -0.841713   -1.685372   -1.655154
     31          1           0       -1.738638   -0.183514   -1.647657
 ---------------------------------------------------------------------

 SCF Done:  E(RM06) =  -613.583133716     A.U. after    9 cycles

      1  C    Isotropic =    -0.3762   Anisotropy =   132.8346

      2  C    Isotropic =   124.8429   Anisotropy =    29.7802

      3  H    Isotropic =    28.2511   Anisotropy =     4.5243

      4  C    Isotropic =   152.4267   Anisotropy =    35.4361

      5  H    Isotropic =    31.0667   Anisotropy =     9.8500

      6  H    Isotropic =    30.8762   Anisotropy =     7.5495

      7  H    Isotropic =    31.6655   Anisotropy =     7.3826

      8  O    Isotropic =   -90.1839   Anisotropy =   677.6466

      9  N    Isotropic =   112.7408   Anisotropy =   141.0132

     10  H    Isotropic =    26.6197   Anisotropy =     8.2566

     11  N    Isotropic =   141.9712   Anisotropy =   119.6966

     12  H    Isotropic =    26.9801   Anisotropy =     6.5724

     13  C    Isotropic =   149.9601   Anisotropy =    38.6439

     14  H    Isotropic =    29.2574   Anisotropy =     8.2603

     15  H    Isotropic =    28.8506   Anisotropy =     9.3522

     16  H    Isotropic =    29.7573   Anisotropy =     9.1335

     17  C    Isotropic =     2.7141   Anisotropy =   131.6124

     18  C    Isotropic =   156.1904   Anisotropy =    40.8695

     19  H    Isotropic =    30.6422   Anisotropy =     5.4827

     20  H    Isotropic =    30.0419   Anisotropy =     7.3705

     21  H    Isotropic =    29.8522   Anisotropy =     6.6275

     22  O    Isotropic =  -102.4359   Anisotropy =   661.1954

     23  C    Isotropic =   156.7507   Anisotropy =     7.0682

     24  H    Isotropic =    30.1992   Anisotropy =     5.8124

     25  C    Isotropic =   149.8839   Anisotropy =    38.8927

     26  H    Isotropic =    31.1858   Anisotropy =     7.6673

     27  H    Isotropic =    31.1153   Anisotropy =     8.7999

     28  H    Isotropic =    30.9396   Anisotropy =     9.9458

     29  C    Isotropic =   136.3416   Anisotropy =    24.3999

     30  H    Isotropic =    30.5558   Anisotropy =     5.1251

     31  H    Isotropic =    30.6122   Anisotropy =     4.3026

 The electronic state is 1-A.
 Alpha  occ. eigenvalues --  -19.17208 -19.16582 -14.41913 -14.41632 -10.33370
 Alpha  occ. eigenvalues --  -10.33367 -10.29286 -10.27083 -10.25604 -10.25169
 Alpha  occ. eigenvalues --  -10.23794 -10.23506 -10.22975  -1.05398  -1.04094
 Alpha  occ. eigenvalues --   -0.94429  -0.94224  -0.83895  -0.78601  -0.74293
 Alpha  occ. eigenvalues --   -0.72048  -0.70161  -0.65988  -0.60707  -0.59753
 Alpha  occ. eigenvalues --   -0.58634  -0.54455  -0.50850  -0.49821  -0.47813
 Alpha  occ. eigenvalues --   -0.47158  -0.46810  -0.45426  -0.44807  -0.44283
 Alpha  occ. eigenvalues --   -0.42433  -0.41754  -0.40708  -0.40400  -0.40209
 Alpha  occ. eigenvalues --   -0.39903  -0.38366  -0.37782  -0.36566  -0.35093
 Alpha  occ. eigenvalues --   -0.34483  -0.33880  -0.28244  -0.27530  -0.26142
 Alpha  occ. eigenvalues --   -0.26015
 Alpha virt. eigenvalues --    0.01308   0.01983   0.02709   0.03750   0.04696
 Alpha virt. eigenvalues --    0.05249   0.06528   0.07168   0.08064   0.08476
 Alpha virt. eigenvalues --    0.09949   0.10183   0.10768   0.10940   0.12083

 Mulliken charges:
               1
     1  C    0.244594
     2  C   -0.134828
     3  H    0.215968
     4  C   -0.452211
     5  H    0.139544
     6  H    0.172179
     7  H    0.144468
     8  O   -0.389069
     9  N   -0.191372
    10  H    0.157241
    11  N   -0.101418
    12  H    0.122614
    13  C   -0.184101
    14  H    0.112873
    15  H    0.127742
    16  H    0.087439
    17  C    0.305538
    18  C   -0.316793
    19  H    0.092766
    20  H    0.114254
    21  H    0.121512
    22  O   -0.406609
    23  C   -0.171489
    24  H    0.202672
    25  C   -0.417013
    26  H    0.144335
    27  H    0.134980
    28  H    0.138217
    29  C   -0.432341
    30  H    0.214073
    31  H    0.204234
 Sum of Mulliken charges =   0.00000

 Dipole moment (field-independent basis, Debye):
    X=             -3.0314    Y=             -1.8794    Z=             -2.3092  Tot=              4.2490
 Quadrupole moment (field-independent basis, Debye-Ang):
   XX=            -85.0742   YY=            -70.2302   ZZ=            -81.1776
   XY=             -9.9336   XZ=              3.5281   YZ=             -5.0803

 Normal termination of Gaussian 09 at Thu Jun 19 02:00:57 2014.
