 Gaussian 09, Revision D.01,
 Gaussian 09:  EM64L-G09RevD.01 24-Apr-2013

 ----------------------------------------------------------------------
 #p nmr=(giao,mixed,spinspin) m06/cc-pvtz scf=tight integral=(grid=ultr
 afine)
 ----------------------------------------------------------------------

 ------------------
 NMR spin-spin scan
 ------------------
 Symbolic Z-matrix:
 Charge =  0 Multiplicity = 1

 SCF Done:  E(RM06) =  -613.625290729     A.U. after   16 cycles
 Normal termination of Gaussian 09 at Wed Jun 18 22:06:35 2014.

 ----------------------------------------------------------------------
 #P Geom=AllCheck Guess=TCheck SCRF=Check GenChk RM06/ChkBas NMR=ReadFC
  IOp(3/6=22)
 ----------------------------------------------------------------------

 Structure from the checkpoint file:  "/home/ztw1e12/leucine_scan/leucine_chi2_scan/Gau-15816.chk"
 ------------------
 NMR spin-spin scan
 ------------------
 Charge =  0 Multiplicity = 1

                         Standard orientation:
 ---------------------------------------------------------------------
 Center     Atomic      Atomic             Coordinates (Angstroms)
 Number     Number       Type             X           Y           Z
 ---------------------------------------------------------------------
      1          6           0        0.022767    1.215523    0.133310
      2          6           0        0.187217    0.006090   -0.782547
      3          1           0        0.578341    0.368257   -1.737201
      4          6           0       -3.285096   -0.640047    0.305284
      5          1           0       -3.809544   -1.030851    1.179673
      6          1           0       -3.271633    0.450976    0.377705
      7          1           0       -3.865851   -0.908626   -0.582255
      8          8           0        0.218282    1.163580    1.344677
      9          7           0        1.131570   -0.936613   -0.235191
     10          1           0        0.792931   -1.790428    0.180461
     11          7           0       -0.382490    2.331734   -0.481487
     12          1           0       -0.569941    2.298309   -1.471211
     13          6           0       -0.709602    3.529135    0.258736
     14          1           0       -1.543258    3.358956    0.942124
     15          1           0        0.145660    3.870277    0.841465
     16          1           0       -0.985742    4.311601   -0.441304
     17          6           0        2.430402   -0.621135   -0.088744
     18          6           0        3.299506   -1.654039    0.548345
     19          1           0        2.759174   -2.554373    0.832615
     20          1           0        4.097448   -1.917406   -0.145588
     21          1           0        3.767960   -1.222229    1.432543
     22          8           0        2.882854    0.455587   -0.475657
     23          6           0       -1.878663   -1.200978    0.205447
     24          1           0       -1.326739   -0.888647    1.098507
     25          6           0       -1.927999   -2.719118    0.183765
     26          1           0       -2.506054   -3.064461   -0.678760
     27          1           0       -0.933761   -3.165973    0.109278
     28          1           0       -2.405166   -3.111585    1.083951
     29          6           0       -1.166112   -0.645603   -1.039080
     30          1           0       -1.017447   -1.442997   -1.773160
     31          1           0       -1.793544    0.101055   -1.531346
 ---------------------------------------------------------------------

 SCF Done:  E(RM06) =  -613.581624811     A.U. after    9 cycles

      1  C    Isotropic =    -1.1000   Anisotropy =   132.6660

      2  C    Isotropic =   124.1662   Anisotropy =    30.4584

      3  H    Isotropic =    28.1327   Anisotropy =     4.4466

      4  C    Isotropic =   150.5165   Anisotropy =    36.8036

      5  H    Isotropic =    31.0917   Anisotropy =    10.0475

      6  H    Isotropic =    31.0292   Anisotropy =     7.6405

      7  H    Isotropic =    31.3101   Anisotropy =     7.5265

      8  O    Isotropic =   -92.1561   Anisotropy =   676.9129

      9  N    Isotropic =   116.5304   Anisotropy =   137.6653

     10  H    Isotropic =    26.2764   Anisotropy =     8.7938

     11  N    Isotropic =   142.9668   Anisotropy =   117.5328

     12  H    Isotropic =    27.0469   Anisotropy =     6.7816

     13  C    Isotropic =   150.0134   Anisotropy =    38.7806

     14  H    Isotropic =    29.2467   Anisotropy =     8.7369

     15  H    Isotropic =    28.8508   Anisotropy =     9.1665

     16  H    Isotropic =    29.7574   Anisotropy =     9.0117

     17  C    Isotropic =     2.1997   Anisotropy =   132.3319

     18  C    Isotropic =   156.1410   Anisotropy =    40.8423

     19  H    Isotropic =    30.6126   Anisotropy =     5.2875

     20  H    Isotropic =    30.0167   Anisotropy =     7.3541

     21  H    Isotropic =    29.8545   Anisotropy =     6.6884

     22  O    Isotropic =  -102.0781   Anisotropy =   666.4956

     23  C    Isotropic =   157.7866   Anisotropy =    12.6041

     24  H    Isotropic =    29.9838   Anisotropy =     6.8658

     25  C    Isotropic =   149.5528   Anisotropy =    37.5648

     26  H    Isotropic =    31.1721   Anisotropy =     7.5226

     27  H    Isotropic =    31.0694   Anisotropy =     7.5307

     28  H    Isotropic =    30.8836   Anisotropy =     9.9690

     29  C    Isotropic =   137.5514   Anisotropy =    27.1857

     30  H    Isotropic =    30.4857   Anisotropy =     4.6980

     31  H    Isotropic =    30.6341   Anisotropy =     4.6607

 The electronic state is 1-A.
 Alpha  occ. eigenvalues --  -19.17335 -19.16593 -14.41953 -14.41529 -10.33402
 Alpha  occ. eigenvalues --  -10.33349 -10.29218 -10.27100 -10.25515 -10.25175
 Alpha  occ. eigenvalues --  -10.23854 -10.23744 -10.23379  -1.05440  -1.04131
 Alpha  occ. eigenvalues --   -0.94381  -0.94226  -0.83918  -0.78676  -0.74336
 Alpha  occ. eigenvalues --   -0.71991  -0.70521  -0.65909  -0.60578  -0.59812
 Alpha  occ. eigenvalues --   -0.58740  -0.54729  -0.50707  -0.49664  -0.48165
 Alpha  occ. eigenvalues --   -0.46894  -0.46268  -0.45465  -0.45257  -0.44537
 Alpha  occ. eigenvalues --   -0.42969  -0.41619  -0.41041  -0.40565  -0.40277
 Alpha  occ. eigenvalues --   -0.40153  -0.38155  -0.37674  -0.36482  -0.35295
 Alpha  occ. eigenvalues --   -0.34552  -0.34119  -0.28322  -0.27512  -0.26203
 Alpha  occ. eigenvalues --   -0.25977
 Alpha virt. eigenvalues --    0.01280   0.02224   0.02552   0.03690   0.04357
 Alpha virt. eigenvalues --    0.05106   0.06767   0.07188   0.07524   0.08440
 Alpha virt. eigenvalues --    0.09925   0.10433   0.10719   0.11116   0.12019

 Mulliken charges:
               1
     1  C    0.278435
     2  C   -0.128015
     3  H    0.216619
     4  C   -0.426863
     5  H    0.137724
     6  H    0.143192
     7  H    0.142431
     8  O   -0.393578
     9  N   -0.205028
    10  H    0.174618
    11  N   -0.121161
    12  H    0.124365
    13  C   -0.175922
    14  H    0.106390
    15  H    0.125542
    16  H    0.087141
    17  C    0.303717
    18  C   -0.319333
    19  H    0.093405
    20  H    0.114611
    21  H    0.121023
    22  O   -0.405808
    23  C   -0.179244
    24  H    0.220341
    25  C   -0.435068
    26  H    0.146705
    27  H    0.136409
    28  H    0.141664
    29  C   -0.439564
    30  H    0.207557
    31  H    0.207693
 Sum of Mulliken charges =   0.00000

 Dipole moment (field-independent basis, Debye):
    X=             -3.3341    Y=             -1.6034    Z=             -2.0627  Tot=              4.2357
 Quadrupole moment (field-independent basis, Debye-Ang):
   XX=            -85.3960   YY=            -69.6899   ZZ=            -81.6955
   XY=             -9.3048   XZ=              3.7634   YZ=             -5.0587

 Normal termination of Gaussian 09 at Thu Jun 19 01:54:53 2014.
