 Gaussian 09, Revision D.01,
 Gaussian 09:  EM64L-G09RevD.01 24-Apr-2013

 ----------------------------------------------------------------------
 #p nmr=(giao,mixed,spinspin) m06/cc-pvtz scf=tight integral=(grid=ultr
 afine)
 ----------------------------------------------------------------------

 ------------------
 NMR spin-spin scan
 ------------------
 Symbolic Z-matrix:
 Charge =  0 Multiplicity = 1

 SCF Done:  E(RM06) =  -613.617024630     A.U. after   16 cycles
 Normal termination of Gaussian 09 at Wed Jun 18 08:26:26 2014.

 ----------------------------------------------------------------------
 #P Geom=AllCheck Guess=TCheck SCRF=Check GenChk RM06/ChkBas NMR=ReadFC
  IOp(3/6=22)
 ----------------------------------------------------------------------

 Structure from the checkpoint file:  "/home/ztw1e12/leucine_scan/leucine_chi2_scan/Gau-2029.chk"
 ------------------
 NMR spin-spin scan
 ------------------
 Charge =  0 Multiplicity = 1

                         Standard orientation:
 ---------------------------------------------------------------------
 Center     Atomic      Atomic             Coordinates (Angstroms)
 Number     Number       Type             X           Y           Z
 ---------------------------------------------------------------------
      1          6           0        0.490206   -1.213703    0.052381
      2          6           0       -0.114502   -0.072038   -0.764411
      3          1           0       -0.456876   -0.541897   -1.691904
      4          6           0        1.155172    3.290484   -0.113860
      5          1           0        1.743370    3.900655    0.574840
      6          1           0        1.244967    3.724523   -1.111301
      7          1           0        0.104997    3.366963    0.187843
      8          8           0        0.022444   -1.583644    1.124378
      9          7           0       -1.286745    0.472660   -0.120277
     10          1           0       -1.199108    1.325914    0.410091
     11          7           0        1.542619   -1.817778   -0.512217
     12          1           0        1.905660   -1.466621   -1.383036
     13          6           0        2.247831   -2.882813    0.162583
     14          1           0        2.632986   -2.547410    1.127502
     15          1           0        1.595893   -3.739227    0.335950
     16          1           0        3.082845   -3.199890   -0.454668
     17          6           0       -2.466387   -0.172078   -0.110596
     18          6           0       -3.577985    0.492057    0.633803
     19          1           0       -3.301007    1.458856    1.048648
     20          1           0       -4.425748    0.617714   -0.039054
     21          1           0       -3.898464   -0.164925    1.442347
     22          8           0       -2.632795   -1.244082   -0.690774
     23          6           0        1.615205    1.841893   -0.096697
     24          1           0        2.666719    1.842428   -0.400806
     25          6           0        1.582827    1.298599    1.321222
     26          1           0        0.572855    1.275770    1.737506
     27          1           0        2.005034    0.295542    1.402657
     28          1           0        2.178464    1.947003    1.967174
     29          6           0        0.860047    1.027707   -1.174751
     30          1           0        0.294724    1.714536   -1.809416
     31          1           0        1.589894    0.567049   -1.843791
 ---------------------------------------------------------------------

 SCF Done:  E(RM06) =  -613.573350579     A.U. after    9 cycles

      1  C    Isotropic =     0.3331   Anisotropy =   129.7971

      2  C    Isotropic =   126.2945   Anisotropy =    33.7561

      3  H    Isotropic =    27.6180   Anisotropy =     4.4635

      4  C    Isotropic =   147.4659   Anisotropy =    39.9771

      5  H    Isotropic =    30.9590   Anisotropy =    10.1373

      6  H    Isotropic =    30.7763   Anisotropy =     9.0564

      7  H    Isotropic =    31.1257   Anisotropy =     5.8328

      8  O    Isotropic =  -110.3742   Anisotropy =   698.5284

      9  N    Isotropic =   115.7057   Anisotropy =   134.4553

     10  H    Isotropic =    26.5005   Anisotropy =     8.8557

     11  N    Isotropic =   145.8889   Anisotropy =   109.9365

     12  H    Isotropic =    26.9259   Anisotropy =     7.1576

     13  C    Isotropic =   149.8019   Anisotropy =    38.3318

     14  H    Isotropic =    29.1316   Anisotropy =     8.5533

     15  H    Isotropic =    28.9429   Anisotropy =     9.7206

     16  H    Isotropic =    29.7211   Anisotropy =     8.9886

     17  C    Isotropic =     3.2107   Anisotropy =   130.8554

     18  C    Isotropic =   155.6042   Anisotropy =    41.3516

     19  H    Isotropic =    30.6334   Anisotropy =     5.1511

     20  H    Isotropic =    29.9938   Anisotropy =     7.3041

     21  H    Isotropic =    29.7097   Anisotropy =     6.6414

     22  O    Isotropic =   -98.7061   Anisotropy =   668.8879

     23  C    Isotropic =   154.1699   Anisotropy =    16.0028

     24  H    Isotropic =    30.1508   Anisotropy =     7.7845

     25  C    Isotropic =   157.1885   Anisotropy =    21.0959

     26  H    Isotropic =    31.1961   Anisotropy =     4.9875

     27  H    Isotropic =    30.7872   Anisotropy =     7.6176

     28  H    Isotropic =    31.1289   Anisotropy =     9.4346

     29  C    Isotropic =   142.6043   Anisotropy =    21.9016

     30  H    Isotropic =    30.4306   Anisotropy =     5.2635

     31  H    Isotropic =    29.8352   Anisotropy =     6.4164

 The electronic state is 1-A.
 Alpha  occ. eigenvalues --  -19.17236 -19.16164 -14.42035 -14.41343 -10.33478
 Alpha  occ. eigenvalues --  -10.33067 -10.29223 -10.27277 -10.25947 -10.25911
 Alpha  occ. eigenvalues --  -10.24025 -10.23518 -10.23384  -1.05366  -1.03817
 Alpha  occ. eigenvalues --   -0.94409  -0.94100  -0.83939  -0.78655  -0.74214
 Alpha  occ. eigenvalues --   -0.72126  -0.70659  -0.66700  -0.60811  -0.59832
 Alpha  occ. eigenvalues --   -0.58326  -0.54902  -0.50386  -0.49303  -0.48395
 Alpha  occ. eigenvalues --   -0.47422  -0.46817  -0.45362  -0.45092  -0.44446
 Alpha  occ. eigenvalues --   -0.42621  -0.42124  -0.40959  -0.40380  -0.40086
 Alpha  occ. eigenvalues --   -0.39720  -0.38835  -0.38322  -0.36530  -0.35510
 Alpha  occ. eigenvalues --   -0.34334  -0.33526  -0.28195  -0.27520  -0.26190
 Alpha  occ. eigenvalues --   -0.25553
 Alpha virt. eigenvalues --    0.00654   0.02092   0.02668   0.03759   0.04599
 Alpha virt. eigenvalues --    0.04855   0.06842   0.07053   0.07731   0.07963
 Alpha virt. eigenvalues --    0.09357   0.09756   0.11114   0.11749   0.12027

 Mulliken charges:
               1
     1  C    0.273447
     2  C   -0.129240
     3  H    0.229943
     4  C   -0.428378
     5  H    0.140448
     6  H    0.135445
     7  H    0.146522
     8  O   -0.381896
     9  N   -0.203257
    10  H    0.171004
    11  N   -0.142372
    12  H    0.135761
    13  C   -0.182058
    14  H    0.113159
    15  H    0.123991
    16  H    0.086949
    17  C    0.304868
    18  C   -0.322648
    19  H    0.091861
    20  H    0.114467
    21  H    0.122185
    22  O   -0.406528
    23  C   -0.114824
    24  H    0.159900
    25  C   -0.480185
    26  H    0.166263
    27  H    0.175368
    28  H    0.149582
    29  C   -0.444655
    30  H    0.207187
    31  H    0.187693
 Sum of Mulliken charges =   0.00000

 Dipole moment (field-independent basis, Debye):
    X=              3.8404    Y=              3.4774    Z=             -1.3288  Tot=              5.3486
 Quadrupole moment (field-independent basis, Debye-Ang):
   XX=            -76.5229   YY=            -80.3867   ZZ=            -81.1457
   XY=            -12.0246   XZ=             -6.6780   YZ=              2.8654

 Normal termination of Gaussian 09 at Wed Jun 18 12:23:15 2014.
