 Gaussian 09, Revision D.01,
 Gaussian 09:  EM64L-G09RevD.01 24-Apr-2013

 ----------------------------------------------------------------------
 #p nmr=(giao,mixed,spinspin) m06/cc-pvtz scf=tight integral=(grid=ultr
 afine)
 ----------------------------------------------------------------------

 ------------------
 NMR spin-spin scan
 ------------------
 Symbolic Z-matrix:
 Charge =  0 Multiplicity = 1

 SCF Done:  E(RM06) =  -613.621409838     A.U. after   16 cycles
 Normal termination of Gaussian 09 at Wed Jun 18 13:38:53 2014.

 ----------------------------------------------------------------------
 #P Geom=AllCheck Guess=TCheck SCRF=Check GenChk RM06/ChkBas NMR=ReadFC
  IOp(3/6=22)
 ----------------------------------------------------------------------

 Structure from the checkpoint file:  "/home/ztw1e12/leucine_scan/leucine_chi2_scan/Gau-12090.chk"
 ------------------
 NMR spin-spin scan
 ------------------
 Charge =  0 Multiplicity = 1

                         Standard orientation:
 ---------------------------------------------------------------------
 Center     Atomic      Atomic             Coordinates (Angstroms)
 Number     Number       Type             X           Y           Z
 ---------------------------------------------------------------------
      1          6           0       -0.135433    1.174858    0.047668
      2          6           0        0.229678   -0.085495   -0.737283
      3          1           0        0.604741    0.281521   -1.697698
      4          6           0       -1.661767   -0.986940    1.438755
      5          1           0       -2.226930   -1.564709    2.173100
      6          1           0       -0.655881   -0.854478    1.836445
      7          1           0       -2.135229   -0.001134    1.375852
      8          8           0        0.426841    1.492521    1.090514
      9          7           0        1.316318   -0.798255   -0.108362
     10          1           0        1.097945   -1.561922    0.513163
     11          7           0       -1.080335    1.938449   -0.512500
     12          1           0       -1.529106    1.631119   -1.359952
     13          6           0       -1.575502    3.124776    0.147409
     14          1           0       -1.993494    2.881919    1.126257
     15          1           0       -0.781462    3.858218    0.288972
     16          1           0       -2.354116    3.568376   -0.465718
     17          6           0        2.589746   -0.369062   -0.164928
     18          6           0        3.585868   -1.153315    0.624252
     19          1           0        3.165724   -2.043718    1.087704
     20          1           0        4.411263   -1.436989   -0.027561
     21          1           0        3.993302   -0.507567    1.402804
     22          8           0        2.925000    0.607567   -0.832904
     23          6           0       -1.684938   -1.707225    0.102330
     24          1           0       -1.195957   -2.675641    0.267454
     25          6           0       -3.111247   -1.981571   -0.331350
     26          1           0       -3.656323   -1.039608   -0.449825
     27          1           0       -3.145656   -2.507547   -1.287978
     28          1           0       -3.642333   -2.586706    0.405759
     29          6           0       -0.934885   -1.017979   -1.049380
     30          1           0       -0.572610   -1.778876   -1.743785
     31          1           0       -1.659613   -0.432604   -1.624683
 ---------------------------------------------------------------------

 SCF Done:  E(RM06) =  -613.577774239     A.U. after   10 cycles

      1  C    Isotropic =    -0.2254   Anisotropy =   131.1297

      2  C    Isotropic =   127.0155   Anisotropy =    34.5806

      3  H    Isotropic =    27.5647   Anisotropy =     4.5676

      4  C    Isotropic =   157.0561   Anisotropy =    22.7424

      5  H    Isotropic =    31.1606   Anisotropy =     9.3690

      6  H    Isotropic =    30.6409   Anisotropy =     6.4787

      7  H    Isotropic =    31.4443   Anisotropy =     5.9484

      8  O    Isotropic =  -106.9720   Anisotropy =   694.5636

      9  N    Isotropic =   120.1468   Anisotropy =   130.4182

     10  H    Isotropic =    26.4764   Anisotropy =     8.5712

     11  N    Isotropic =   144.9250   Anisotropy =   106.9905

     12  H    Isotropic =    26.9151   Anisotropy =     6.7899

     13  C    Isotropic =   149.8478   Anisotropy =    38.3183

     14  H    Isotropic =    29.1894   Anisotropy =     8.3516

     15  H    Isotropic =    28.9392   Anisotropy =     9.7792

     16  H    Isotropic =    29.7257   Anisotropy =     8.9498

     17  C    Isotropic =     2.7466   Anisotropy =   131.6810

     18  C    Isotropic =   155.5959   Anisotropy =    41.4802

     19  H    Isotropic =    30.6103   Anisotropy =     5.3953

     20  H    Isotropic =    29.9966   Anisotropy =     7.4135

     21  H    Isotropic =    29.6803   Anisotropy =     6.5060

     22  O    Isotropic =   -99.4489   Anisotropy =   667.1613

     23  C    Isotropic =   154.2264   Anisotropy =    10.5185

     24  H    Isotropic =    30.3227   Anisotropy =     7.2051

     25  C    Isotropic =   150.8944   Anisotropy =    38.6893

     26  H    Isotropic =    31.3336   Anisotropy =     6.3687

     27  H    Isotropic =    30.8478   Anisotropy =     9.4237

     28  H    Isotropic =    30.9237   Anisotropy =    10.4048

     29  C    Isotropic =   139.8912   Anisotropy =    29.8797

     30  H    Isotropic =    29.8983   Anisotropy =     6.4047

     31  H    Isotropic =    30.7186   Anisotropy =     3.9632

 The electronic state is 1-A.
 Alpha  occ. eigenvalues --  -19.17366 -19.16238 -14.42094 -14.41358 -10.33566
 Alpha  occ. eigenvalues --  -10.33122 -10.29228 -10.27310 -10.25956 -10.25885
 Alpha  occ. eigenvalues --  -10.23934 -10.23535 -10.23310  -1.05482  -1.03898
 Alpha  occ. eigenvalues --   -0.94478  -0.94157  -0.84144  -0.78657  -0.74203
 Alpha  occ. eigenvalues --   -0.72120  -0.70699  -0.66607  -0.60533  -0.60017
 Alpha  occ. eigenvalues --   -0.58443  -0.55146  -0.50739  -0.49354  -0.48275
 Alpha  occ. eigenvalues --   -0.47395  -0.46671  -0.45348  -0.45178  -0.44190
 Alpha  occ. eigenvalues --   -0.42710  -0.41689  -0.41073  -0.40521  -0.40316
 Alpha  occ. eigenvalues --   -0.39936  -0.38673  -0.38386  -0.36441  -0.35467
 Alpha  occ. eigenvalues --   -0.34774  -0.33588  -0.28258  -0.27603  -0.26320
 Alpha  occ. eigenvalues --   -0.25622
 Alpha virt. eigenvalues --    0.00952   0.02034   0.02510   0.03699   0.04629
 Alpha virt. eigenvalues --    0.04729   0.06715   0.07042   0.07557   0.08120
 Alpha virt. eigenvalues --    0.09746   0.10076   0.11094   0.11434   0.11735

 Mulliken charges:
               1
     1  C    0.290394
     2  C   -0.135156
     3  H    0.230595
     4  C   -0.495885
     5  H    0.152947
     6  H    0.176678
     7  H    0.168331
     8  O   -0.384433
     9  N   -0.188402
    10  H    0.158193
    11  N   -0.153027
    12  H    0.138374
    13  C   -0.184495
    14  H    0.113347
    15  H    0.125620
    16  H    0.087493
    17  C    0.303107
    18  C   -0.319687
    19  H    0.091260
    20  H    0.114616
    21  H    0.123118
    22  O   -0.406198
    23  C   -0.137897
    24  H    0.178043
    25  C   -0.429085
    26  H    0.142385
    27  H    0.139068
    28  H    0.140082
    29  C   -0.427428
    30  H    0.195338
    31  H    0.192705
 Sum of Mulliken charges =   0.00000

 Dipole moment (field-independent basis, Debye):
    X=             -4.2890    Y=             -2.7575    Z=             -0.8466  Tot=              5.1688
 Quadrupole moment (field-independent basis, Debye-Ang):
   XX=            -82.3751   YY=            -75.3674   ZZ=            -81.5287
   XY=            -11.6743   XZ=              6.5061   YZ=             -3.9190

 Normal termination of Gaussian 09 at Wed Jun 18 17:34:28 2014.
