 Gaussian 09, Revision D.01,
 Gaussian 09:  EM64L-G09RevD.01 24-Apr-2013

 ----------------------------------------------------------------------
 #p nmr=(giao,mixed,spinspin) m06/cc-pvtz scf=tight integral=(grid=ultr
 afine)
 ----------------------------------------------------------------------

 ------------------
 NMR spin-spin scan
 ------------------
 Symbolic Z-matrix:
 Charge =  0 Multiplicity = 1

 SCF Done:  E(RM06) =  -613.618806627     A.U. after   16 cycles
 Normal termination of Gaussian 09 at Wed Jun 18 08:38:53 2014.

 ----------------------------------------------------------------------
 #P Geom=AllCheck Guess=TCheck SCRF=Check GenChk RM06/ChkBas NMR=ReadFC
  IOp(3/6=22)
 ----------------------------------------------------------------------

 Structure from the checkpoint file:  "/home/ztw1e12/leucine_scan/leucine_chi2_scan/Gau-4888.chk"
 ------------------
 NMR spin-spin scan
 ------------------
 Charge =  0 Multiplicity = 1

                         Standard orientation:
 ---------------------------------------------------------------------
 Center     Atomic      Atomic             Coordinates (Angstroms)
 Number     Number       Type             X           Y           Z
 ---------------------------------------------------------------------
      1          6           0        0.624595   -1.148459    0.064744
      2          6           0       -0.090364   -0.081841   -0.767622
      3          1           0       -0.381269   -0.596162   -1.689168
      4          6           0        0.616281    3.361798   -0.073294
      5          1           0        1.107154    4.064952    0.602981
      6          1           0        0.553221    3.828323   -1.057956
      7          1           0       -0.406420    3.221482    0.291387
      8          8           0        0.223861   -1.512461    1.165401
      9          7           0       -1.313547    0.346795   -0.131575
     10          1           0       -1.306397    1.182488    0.432015
     11          7           0        1.697357   -1.695539   -0.519345
     12          1           0        2.007923   -1.341708   -1.409407
     13          6           0        2.517530   -2.661947    0.173941
     14          1           0        2.922229   -2.243276    1.097505
     15          1           0        1.945373   -3.554382    0.427825
     16          1           0        3.343457   -2.949553   -0.469493
     17          6           0       -2.416130   -0.423665   -0.106096
     18          6           0       -3.583163    0.118177    0.652346
     19          1           0       -3.398721    1.100437    1.082046
     20          1           0       -4.442596    0.171913   -0.015373
     21          1           0       -3.834244   -0.579565    1.451099
     22          8           0       -2.475072   -1.506558   -0.686274
     23          6           0        1.376802    2.046449   -0.132605
     24          1           0        2.381112    2.291770   -0.492982
     25          6           0        1.546958    1.466890    1.260230
     26          1           0        0.588650    1.228852    1.728442
     27          1           0        2.161364    0.564171    1.270625
     28          1           0        2.042281    2.199227    1.900876
     29          6           0        0.781912    1.096902   -1.194602
     30          1           0        0.194476    1.683494   -1.905348
     31          1           0        1.598902    0.675082   -1.783899
 ---------------------------------------------------------------------

 SCF Done:  E(RM06) =  -613.575135264     A.U. after    9 cycles

      1  C    Isotropic =    -0.2474   Anisotropy =   130.5325

      2  C    Isotropic =   126.0095   Anisotropy =    34.6391

      3  H    Isotropic =    27.5795   Anisotropy =     4.3794

      4  C    Isotropic =   148.2988   Anisotropy =    39.3023

      5  H    Isotropic =    30.9193   Anisotropy =    10.0068

      6  H    Isotropic =    30.7888   Anisotropy =     9.0243

      7  H    Isotropic =    31.0896   Anisotropy =     5.6304

      8  O    Isotropic =  -108.4551   Anisotropy =   698.4098

      9  N    Isotropic =   117.5054   Anisotropy =   132.6325

     10  H    Isotropic =    26.4047   Anisotropy =     8.8486

     11  N    Isotropic =   145.3281   Anisotropy =   108.8243

     12  H    Isotropic =    26.9299   Anisotropy =     7.1987

     13  C    Isotropic =   149.8011   Anisotropy =    38.4050

     14  H    Isotropic =    29.1804   Anisotropy =     8.5652

     15  H    Isotropic =    28.9106   Anisotropy =     9.6055

     16  H    Isotropic =    29.7204   Anisotropy =     9.0079

     17  C    Isotropic =     2.8053   Anisotropy =   131.2730

     18  C    Isotropic =   155.5004   Anisotropy =    41.4459

     19  H    Isotropic =    30.6191   Anisotropy =     5.0810

     20  H    Isotropic =    29.9768   Anisotropy =     7.2930

     21  H    Isotropic =    29.7251   Anisotropy =     6.6589

     22  O    Isotropic =   -98.7727   Anisotropy =   670.4147

     23  C    Isotropic =   153.3361   Anisotropy =    14.5774

     24  H    Isotropic =    30.1495   Anisotropy =     8.0114

     25  C    Isotropic =   157.3817   Anisotropy =    20.8569

     26  H    Isotropic =    31.0721   Anisotropy =     4.8851

     27  H    Isotropic =    30.9218   Anisotropy =     7.5191

     28  H    Isotropic =    31.1035   Anisotropy =     9.4926

     29  C    Isotropic =   142.3810   Anisotropy =    19.0819

     30  H    Isotropic =    30.2913   Anisotropy =     5.6032

     31  H    Isotropic =    29.9415   Anisotropy =     6.5702

 The electronic state is 1-A.
 Alpha  occ. eigenvalues --  -19.17287 -19.16247 -14.42024 -14.41342 -10.33492
 Alpha  occ. eigenvalues --  -10.33111 -10.29227 -10.27271 -10.25917 -10.25888
 Alpha  occ. eigenvalues --  -10.24057 -10.23527 -10.23338  -1.05404  -1.03884
 Alpha  occ. eigenvalues --   -0.94413  -0.94108  -0.83930  -0.78635  -0.74231
 Alpha  occ. eigenvalues --   -0.72094  -0.70669  -0.66732  -0.60749  -0.59769
 Alpha  occ. eigenvalues --   -0.58278  -0.55009  -0.50229  -0.49333  -0.48166
 Alpha  occ. eigenvalues --   -0.47443  -0.46940  -0.45376  -0.45180  -0.44544
 Alpha  occ. eigenvalues --   -0.42462  -0.42299  -0.40898  -0.40360  -0.40095
 Alpha  occ. eigenvalues --   -0.39777  -0.38832  -0.38315  -0.36510  -0.35531
 Alpha  occ. eigenvalues --   -0.34507  -0.33427  -0.28206  -0.27570  -0.26247
 Alpha  occ. eigenvalues --   -0.25614
 Alpha virt. eigenvalues --    0.00769   0.02165   0.02629   0.03700   0.04502
 Alpha virt. eigenvalues --    0.04892   0.06916   0.07012   0.07854   0.08008
 Alpha virt. eigenvalues --    0.09366   0.09703   0.11391   0.11817   0.12072

 Mulliken charges:
               1
     1  C    0.281236
     2  C   -0.136916
     3  H    0.231955
     4  C   -0.430101
     5  H    0.141181
     6  H    0.136202
     7  H    0.145301
     8  O   -0.384369
     9  N   -0.208015
    10  H    0.175209
    11  N   -0.144540
    12  H    0.134970
    13  C   -0.183130
    14  H    0.111707
    15  H    0.125560
    16  H    0.087285
    17  C    0.305065
    18  C   -0.323324
    19  H    0.092868
    20  H    0.114587
    21  H    0.121880
    22  O   -0.406036
    23  C   -0.110593
    24  H    0.155247
    25  C   -0.486639
    26  H    0.170631
    27  H    0.171365
    28  H    0.150718
    29  C   -0.425581
    30  H    0.200552
    31  H    0.185724
 Sum of Mulliken charges =   0.00000

 Dipole moment (field-independent basis, Debye):
    X=              3.4075    Y=              3.7153    Z=             -1.3694  Tot=              5.2239
 Quadrupole moment (field-independent basis, Debye-Ang):
   XX=            -74.3036   YY=            -82.1837   ZZ=            -81.2492
   XY=            -11.1988   XZ=             -7.1067   YZ=              2.2202

 Normal termination of Gaussian 09 at Wed Jun 18 12:36:08 2014.
