 Gaussian 09, Revision D.01,
 Gaussian 09:  EM64L-G09RevD.01 24-Apr-2013

 ----------------------------------------------------------------------
 #p nmr=(giao,mixed,spinspin) m06/cc-pvtz scf=tight integral=(grid=ultr
 afine)
 ----------------------------------------------------------------------

 ------------------
 NMR spin-spin scan
 ------------------
 Symbolic Z-matrix:
 Charge =  0 Multiplicity = 1

 SCF Done:  E(RM06) =  -613.626805142     A.U. after   16 cycles
 Normal termination of Gaussian 09 at Wed Jun 18 20:48:41 2014.

 ----------------------------------------------------------------------
 #P Geom=AllCheck Guess=TCheck SCRF=Check GenChk RM06/ChkBas NMR=ReadFC
  IOp(3/6=22)
 ----------------------------------------------------------------------

 Structure from the checkpoint file:  "/home/ztw1e12/leucine_scan/leucine_chi2_scan/Gau-9001.chk"
 ------------------
 NMR spin-spin scan
 ------------------
 Charge =  0 Multiplicity = 1

                         Standard orientation:
 ---------------------------------------------------------------------
 Center     Atomic      Atomic             Coordinates (Angstroms)
 Number     Number       Type             X           Y           Z
 ---------------------------------------------------------------------
      1          6           0        0.037672    1.155215    0.068521
      2          6           0        0.224503   -0.119407   -0.743567
      3          1           0        0.601660    0.185703   -1.724302
      4          6           0       -2.654094   -0.225295    0.901716
      5          1           0       -3.261172   -0.617962    1.719992
      6          1           0       -2.020739    0.558715    1.315962
      7          1           0       -3.334937    0.235456    0.178290
      8          8           0        0.329962    1.234625    1.258272
      9          7           0        1.212011   -0.979339   -0.136003
     10          1           0        0.910340   -1.835693    0.302372
     11          7           0       -0.478484    2.179940   -0.618082
     12          1           0       -0.728746    2.040305   -1.584624
     13          6           0       -0.845511    3.416416    0.032630
     14          1           0       -1.637283    3.258308    0.767977
     15          1           0        0.011324    3.855107    0.543182
     16          1           0       -1.200870    4.118457   -0.715453
     17          6           0        2.505012   -0.626338   -0.052390
     18          6           0        3.417927   -1.599977    0.617540
     19          1           0        2.897329   -2.466056    1.020463
     20          1           0        4.162361   -1.935460   -0.104595
     21          1           0        3.949337   -1.091191    1.421069
     22          8           0        2.921073    0.433205   -0.520488
     23          6           0       -1.871790   -1.347732    0.239609
     24          1           0       -1.181259   -1.770582    0.980776
     25          6           0       -2.829661   -2.443969   -0.191036
     26          1           0       -3.518401   -2.065571   -0.953268
     27          1           0       -2.300305   -3.298977   -0.615676
     28          1           0       -3.429424   -2.798195    0.649362
     29          6           0       -1.073152   -0.888525   -0.978921
     30          1           0       -0.803072   -1.764273   -1.576640
     31          1           0       -1.724537   -0.277275   -1.613172
 ---------------------------------------------------------------------

 SCF Done:  E(RM06) =  -613.583181720     A.U. after    9 cycles

      1  C    Isotropic =    -1.1325   Anisotropy =   133.6667

      2  C    Isotropic =   125.7265   Anisotropy =    32.3910

      3  H    Isotropic =    28.0524   Anisotropy =     4.2003

      4  C    Isotropic =   155.3607   Anisotropy =    34.7875

      5  H    Isotropic =    31.1782   Anisotropy =     9.6282

      6  H    Isotropic =    30.2445   Anisotropy =     8.4861

      7  H    Isotropic =    31.8442   Anisotropy =     6.5822

      8  O    Isotropic =   -95.4139   Anisotropy =   684.9751

      9  N    Isotropic =   114.8896   Anisotropy =   136.8816

     10  H    Isotropic =    26.4947   Anisotropy =     8.4054

     11  N    Isotropic =   141.2270   Anisotropy =   116.7401

     12  H    Isotropic =    26.9614   Anisotropy =     6.5292

     13  C    Isotropic =   149.9850   Anisotropy =    38.5219

     14  H    Isotropic =    29.3183   Anisotropy =     8.3254

     15  H    Isotropic =    28.7911   Anisotropy =     9.3048

     16  H    Isotropic =    29.7496   Anisotropy =     9.1160

     17  C    Isotropic =     2.8139   Anisotropy =   131.7117

     18  C    Isotropic =   156.0459   Anisotropy =    40.9335

     19  H    Isotropic =    30.6293   Anisotropy =     5.4385

     20  H    Isotropic =    30.0161   Anisotropy =     7.2549

     21  H    Isotropic =    29.8524   Anisotropy =     6.7605

     22  O    Isotropic =  -101.9354   Anisotropy =   662.8944

     23  C    Isotropic =   154.6983   Anisotropy =     4.3796

     24  H    Isotropic =    30.5040   Anisotropy =     5.7412

     25  C    Isotropic =   150.1687   Anisotropy =    42.2872

     26  H    Isotropic =    31.2398   Anisotropy =     7.4647

     27  H    Isotropic =    31.0985   Anisotropy =     9.3945

     28  H    Isotropic =    30.9166   Anisotropy =     9.8662

     29  C    Isotropic =   135.5465   Anisotropy =    23.8207

     30  H    Isotropic =    30.3511   Anisotropy =     5.3213

     31  H    Isotropic =    30.6569   Anisotropy =     4.2533

 The electronic state is 1-A.
 Alpha  occ. eigenvalues --  -19.17269 -19.16443 -14.42016 -14.41480 -10.33456
 Alpha  occ. eigenvalues --  -10.33251 -10.29272 -10.27149 -10.25809 -10.25636
 Alpha  occ. eigenvalues --  -10.23697 -10.23570 -10.22791  -1.05428  -1.04009
 Alpha  occ. eigenvalues --   -0.94407  -0.94244  -0.84040  -0.78632  -0.74229
 Alpha  occ. eigenvalues --   -0.72098  -0.70141  -0.66227  -0.60652  -0.59933
 Alpha  occ. eigenvalues --   -0.58548  -0.54606  -0.50946  -0.49730  -0.47704
 Alpha  occ. eigenvalues --   -0.47489  -0.46952  -0.45366  -0.44846  -0.44203
 Alpha  occ. eigenvalues --   -0.42020  -0.42020  -0.40593  -0.40330  -0.40169
 Alpha  occ. eigenvalues --   -0.39545  -0.38944  -0.38104  -0.36510  -0.35302
 Alpha  occ. eigenvalues --   -0.34674  -0.33665  -0.28182  -0.27588  -0.26177
 Alpha  occ. eigenvalues --   -0.25938
 Alpha virt. eigenvalues --    0.01223   0.02216   0.02708   0.03585   0.04645
 Alpha virt. eigenvalues --    0.05144   0.06543   0.06996   0.07968   0.08092
 Alpha virt. eigenvalues --    0.09792   0.10433   0.10671   0.11342   0.12209

 Mulliken charges:
               1
     1  C    0.245205
     2  C   -0.153090
     3  H    0.223036
     4  C   -0.471966
     5  H    0.144157
     6  H    0.176868
     7  H    0.156299
     8  O   -0.384722
     9  N   -0.185175
    10  H    0.155939
    11  N   -0.109282
    12  H    0.125211
    13  C   -0.183572
    14  H    0.114459
    15  H    0.128196
    16  H    0.088313
    17  C    0.304285
    18  C   -0.317051
    19  H    0.092338
    20  H    0.114418
    21  H    0.120650
    22  O   -0.406850
    23  C   -0.154990
    24  H    0.185661
    25  C   -0.413670
    26  H    0.144524
    27  H    0.133835
    28  H    0.138233
    29  C   -0.422623
    30  H    0.207740
    31  H    0.203623
 Sum of Mulliken charges =   0.00000

 Dipole moment (field-independent basis, Debye):
    X=             -3.4871    Y=             -2.0464    Z=             -1.9372  Tot=              4.4833
 Quadrupole moment (field-independent basis, Debye-Ang):
   XX=            -85.4058   YY=            -70.6912   ZZ=            -81.1848
   XY=            -10.1266   XZ=              4.2831   YZ=             -5.3697

 Normal termination of Gaussian 09 at Thu Jun 19 00:39:33 2014.
