 Gaussian 09, Revision D.01,
 Gaussian 09:  EM64L-G09RevD.01 24-Apr-2013

 ----------------------------------------------------------------------
 #p nmr=(giao,mixed,spinspin) m06/cc-pvtz scf=tight integral=(grid=ultr
 afine)
 ----------------------------------------------------------------------

 ------------------
 NMR spin-spin scan
 ------------------
 Symbolic Z-matrix:
 Charge =  0 Multiplicity = 1

 SCF Done:  E(RM06) =  -613.626013997     A.U. after   16 cycles
 Normal termination of Gaussian 09 at Wed Jun 18 18:08:47 2014.

 ----------------------------------------------------------------------
 #P Geom=AllCheck Guess=TCheck SCRF=Check GenChk RM06/ChkBas NMR=ReadFC
  IOp(3/6=22)
 ----------------------------------------------------------------------

 Structure from the checkpoint file:  "/home/ztw1e12/leucine_scan/leucine_chi2_scan/Gau-20448.chk"
 ------------------
 NMR spin-spin scan
 ------------------
 Charge =  0 Multiplicity = 1

                         Standard orientation:
 ---------------------------------------------------------------------
 Center     Atomic      Atomic             Coordinates (Angstroms)
 Number     Number       Type             X           Y           Z
 ---------------------------------------------------------------------
      1          6           0        0.035337    1.214438    0.069555
      2          6           0        0.165694   -0.072490   -0.748416
      3          1           0        0.562744    0.246983   -1.716352
      4          6           0       -1.936584   -0.745951    1.404019
      5          1           0       -2.519909   -1.302973    2.140223
      6          1           0       -0.960782   -0.542928    1.844361
      7          1           0       -2.442985    0.212768    1.246645
      8          8           0        0.553665    1.360711    1.172198
      9          7           0        1.136017   -0.965391   -0.162927
     10          1           0        0.809571   -1.683066    0.466199
     11          7           0       -0.654113    2.191511   -0.529259
     12          1           0       -1.049995    2.027870   -1.440739
     13          6           0       -0.906983    3.451015    0.132131
     14          1           0       -1.437223    3.298123    1.073529
     15          1           0        0.022651    3.979085    0.346427
     16          1           0       -1.518777    4.072537   -0.514654
     17          6           0        2.453028   -0.684040   -0.169337
     18          6           0        3.324120   -1.588745    0.638181
     19          1           0        2.803061   -2.472800    0.999507
     20          1           0        4.184526   -1.888081    0.041795
     21          1           0        3.697831   -1.026166    1.494845
     22          8           0        2.916646    0.262053   -0.803154
     23          6           0       -1.842357   -1.533550    0.110959
     24          1           0       -1.265573   -2.443452    0.322745
     25          6           0       -3.220036   -1.962425   -0.355918
     26          1           0       -3.851344   -1.085011   -0.527051
     27          1           0       -3.170613   -2.523655   -1.291594
     28          1           0       -3.713867   -2.588714    0.389042
     29          6           0       -1.149727   -0.793129   -1.031719
     30          1           0       -0.970020   -1.502575   -1.843461
     31          1           0       -1.850074   -0.053629   -1.435247
 ---------------------------------------------------------------------

 SCF Done:  E(RM06) =  -613.582389050     A.U. after   10 cycles

      1  C    Isotropic =    -1.2943   Anisotropy =   132.3485

      2  C    Isotropic =   126.7650   Anisotropy =    36.2650

      3  H    Isotropic =    27.6395   Anisotropy =     4.3964

      4  C    Isotropic =   157.3233   Anisotropy =    25.1765

      5  H    Isotropic =    31.2006   Anisotropy =     9.4329

      6  H    Isotropic =    30.3498   Anisotropy =     6.9815

      7  H    Isotropic =    31.7057   Anisotropy =     5.9216

      8  O    Isotropic =  -101.7972   Anisotropy =   689.6925

      9  N    Isotropic =   122.3495   Anisotropy =   129.5154

     10  H    Isotropic =    26.3865   Anisotropy =     8.8013

     11  N    Isotropic =   143.9865   Anisotropy =   110.1669

     12  H    Isotropic =    26.9944   Anisotropy =     7.0370

     13  C    Isotropic =   149.8889   Anisotropy =    38.6516

     14  H    Isotropic =    29.1471   Anisotropy =     8.4122

     15  H    Isotropic =    28.9770   Anisotropy =     9.6878

     16  H    Isotropic =    29.7376   Anisotropy =     8.9595

     17  C    Isotropic =     1.8318   Anisotropy =   133.1053

     18  C    Isotropic =   155.6981   Anisotropy =    41.5757

     19  H    Isotropic =    30.5655   Anisotropy =     5.3815

     20  H    Isotropic =    30.0294   Anisotropy =     7.5830

     21  H    Isotropic =    29.6756   Anisotropy =     6.3296

     22  O    Isotropic =  -104.7058   Anisotropy =   670.0900

     23  C    Isotropic =   153.3581   Anisotropy =     4.8099

     24  H    Isotropic =    30.4932   Anisotropy =     6.1785

     25  C    Isotropic =   151.6416   Anisotropy =    40.7119

     26  H    Isotropic =    31.3373   Anisotropy =     7.0399

     27  H    Isotropic =    30.9474   Anisotropy =     9.5483

     28  H    Isotropic =    30.8772   Anisotropy =    10.1776

     29  C    Isotropic =   138.1059   Anisotropy =    27.8860

     30  H    Isotropic =    29.9859   Anisotropy =     6.3746

     31  H    Isotropic =    30.7844   Anisotropy =     4.3083

 The electronic state is 1-A.
 Alpha  occ. eigenvalues --  -19.17454 -19.16398 -14.42102 -14.41343 -10.33587
 Alpha  occ. eigenvalues --  -10.33198 -10.29215 -10.27270 -10.25830 -10.25764
 Alpha  occ. eigenvalues --  -10.23729 -10.23546 -10.23004  -1.05541  -1.04007
 Alpha  occ. eigenvalues --   -0.94476  -0.94192  -0.84140  -0.78592  -0.74202
 Alpha  occ. eigenvalues --   -0.72053  -0.70479  -0.66414  -0.60512  -0.60117
 Alpha  occ. eigenvalues --   -0.58167  -0.55048  -0.50925  -0.49454  -0.47889
 Alpha  occ. eigenvalues --   -0.47321  -0.46893  -0.45357  -0.45146  -0.44127
 Alpha  occ. eigenvalues --   -0.42613  -0.41488  -0.40820  -0.40469  -0.40161
 Alpha  occ. eigenvalues --   -0.39769  -0.39018  -0.38382  -0.36396  -0.35235
 Alpha  occ. eigenvalues --   -0.34791  -0.33755  -0.28392  -0.27588  -0.26404
 Alpha  occ. eigenvalues --   -0.25728
 Alpha virt. eigenvalues --    0.01198   0.02048   0.02582   0.03588   0.04613
 Alpha virt. eigenvalues --    0.04832   0.06704   0.07040   0.07549   0.08219
 Alpha virt. eigenvalues --    0.09940   0.10720   0.11199   0.11418   0.11912

 Mulliken charges:
               1
     1  C    0.295850
     2  C   -0.150338
     3  H    0.230198
     4  C   -0.482194
     5  H    0.149884
     6  H    0.180279
     7  H    0.157249
     8  O   -0.389915
     9  N   -0.195145
    10  H    0.163949
    11  N   -0.144274
    12  H    0.132297
    13  C   -0.177142
    14  H    0.111851
    15  H    0.122616
    16  H    0.086683
    17  C    0.300591
    18  C   -0.321255
    19  H    0.092004
    20  H    0.115337
    21  H    0.125497
    22  O   -0.404105
    23  C   -0.159875
    24  H    0.176697
    25  C   -0.422307
    26  H    0.145856
    27  H    0.135139
    28  H    0.138312
    29  C   -0.395610
    30  H    0.192469
    31  H    0.189400
 Sum of Mulliken charges =   0.00000

 Dipole moment (field-independent basis, Debye):
    X=             -4.2319    Y=             -1.7493    Z=             -1.0746  Tot=              4.7036
 Quadrupole moment (field-independent basis, Debye-Ang):
   XX=            -85.6959   YY=            -71.2454   ZZ=            -81.6217
   XY=             -9.7061   XZ=              5.7487   YZ=             -5.2671

 Normal termination of Gaussian 09 at Wed Jun 18 22:02:12 2014.
