 Gaussian 09, Revision D.01,
 Gaussian 09:  EM64L-G09RevD.01 24-Apr-2013

 ----------------------------------------------------------------------
 #p nmr=(giao,mixed,spinspin) m06/cc-pvtz scf=tight integral=(grid=ultr
 afine)
 ----------------------------------------------------------------------

 ------------------
 NMR spin-spin scan
 ------------------
 Symbolic Z-matrix:
 Charge =  0 Multiplicity = 1

 SCF Done:  E(RM06) =  -613.624033892     A.U. after   16 cycles
 Normal termination of Gaussian 09 at Wed Jun 18 22:51:21 2014.

 ----------------------------------------------------------------------
 #P Geom=AllCheck Guess=TCheck SCRF=Check GenChk RM06/ChkBas NMR=ReadFC
  IOp(3/6=22)
 ----------------------------------------------------------------------

 Structure from the checkpoint file:  "/home/ztw1e12/leucine_scan/leucine_chi2_scan/Gau-945.chk"
 ------------------
 NMR spin-spin scan
 ------------------
 Charge =  0 Multiplicity = 1

                         Standard orientation:
 ---------------------------------------------------------------------
 Center     Atomic      Atomic             Coordinates (Angstroms)
 Number     Number       Type             X           Y           Z
 ---------------------------------------------------------------------
      1          6           0       -0.041302    1.172114    0.157442
      2          6           0        0.198653   -0.000191   -0.787642
      3          1           0        0.538842    0.413883   -1.741820
      4          6           0       -3.414780   -1.099229   -0.189704
      5          1           0       -4.045405   -1.365392    0.660908
      6          1           0       -3.713731   -0.108726   -0.538741
      7          1           0       -3.623133   -1.813463   -0.993100
      8          8           0        0.281867    1.147485    1.341393
      9          7           0        1.234858   -0.866246   -0.277896
     10          1           0        0.994644   -1.803527    0.003846
     11          7           0       -0.667864    2.214819   -0.395705
     12          1           0       -0.900888    2.179342   -1.375487
     13          6           0       -1.026760    3.382465    0.376497
     14          1           0       -1.678040    3.117259    1.209919
     15          1           0       -0.141059    3.875095    0.778892
     16          1           0       -1.551391    4.082513   -0.266282
     17          6           0        2.508804   -0.455876   -0.163470
     18          6           0        3.480759   -1.443819    0.391259
     19          1           0        3.029657   -2.406186    0.623475
     20          1           0        4.287506   -1.586408   -0.327323
     21          1           0        3.921821   -1.028346    1.297337
     22          8           0        2.858582    0.673966   -0.503229
     23          6           0       -1.944032   -1.129972    0.182998
     24          1           0       -1.790622   -0.364663    0.952772
     25          6           0       -1.569606   -2.474044    0.779953
     26          1           0       -1.668851   -3.266482    0.031973
     27          1           0       -0.545456   -2.495878    1.158849
     28          1           0       -2.224478   -2.723804    1.617273
     29          6           0       -1.096365   -0.768468   -1.041146
     30          1           0       -0.858236   -1.671946   -1.612197
     31          1           0       -1.695962   -0.142774   -1.707520
 ---------------------------------------------------------------------

 SCF Done:  E(RM06) =  -613.580398030     A.U. after    9 cycles

      1  C    Isotropic =     0.3252   Anisotropy =   130.4529

      2  C    Isotropic =   123.2625   Anisotropy =    30.1245

      3  H    Isotropic =    28.0209   Anisotropy =     4.4218

      4  C    Isotropic =   149.8655   Anisotropy =    39.8484

      5  H    Isotropic =    31.0708   Anisotropy =     9.9007

      6  H    Isotropic =    31.1225   Anisotropy =     8.3389

      7  H    Isotropic =    31.1541   Anisotropy =     7.7109

      8  O    Isotropic =   -95.6423   Anisotropy =   681.5754

      9  N    Isotropic =   112.4860   Anisotropy =   139.8238

     10  H    Isotropic =    26.3049   Anisotropy =     8.7878

     11  N    Isotropic =   143.3081   Anisotropy =   116.9276

     12  H    Isotropic =    27.1156   Anisotropy =     6.9212

     13  C    Isotropic =   150.0594   Anisotropy =    38.8331

     14  H    Isotropic =    29.0806   Anisotropy =     8.4923

     15  H    Isotropic =    28.9798   Anisotropy =     9.6463

     16  H    Isotropic =    29.7674   Anisotropy =     8.9406

     17  C    Isotropic =     2.7951   Anisotropy =   131.7437

     18  C    Isotropic =   156.0463   Anisotropy =    40.9524

     19  H    Isotropic =    30.6355   Anisotropy =     5.2715

     20  H    Isotropic =    30.0457   Anisotropy =     7.3822

     21  H    Isotropic =    29.8046   Anisotropy =     6.6199

     22  O    Isotropic =  -102.6405   Anisotropy =   668.9658

     23  C    Isotropic =   154.4174   Anisotropy =    13.4141

     24  H    Isotropic =    30.2209   Anisotropy =     7.3804

     25  C    Isotropic =   152.0700   Anisotropy =    36.8782

     26  H    Isotropic =    31.3478   Anisotropy =     7.3526

     27  H    Isotropic =    30.6887   Anisotropy =     7.0262

     28  H    Isotropic =    30.8768   Anisotropy =     9.8584

     29  C    Isotropic =   136.5777   Anisotropy =    22.5935

     30  H    Isotropic =    30.7330   Anisotropy =     4.3622

     31  H    Isotropic =    30.3777   Anisotropy =     4.7826

 The electronic state is 1-A.
 Alpha  occ. eigenvalues --  -19.17185 -19.16387 -14.42007 -14.41398 -10.33380
 Alpha  occ. eigenvalues --  -10.33171 -10.29229 -10.27114 -10.25701 -10.25246
 Alpha  occ. eigenvalues --  -10.23785 -10.23643 -10.23491  -1.05358  -1.03943
 Alpha  occ. eigenvalues --   -0.94341  -0.94152  -0.83996  -0.78627  -0.74270
 Alpha  occ. eigenvalues --   -0.72001  -0.70643  -0.66050  -0.60827  -0.59624
 Alpha  occ. eigenvalues --   -0.58797  -0.54423  -0.50848  -0.49656  -0.48447
 Alpha  occ. eigenvalues --   -0.46789  -0.46114  -0.45425  -0.45116  -0.44647
 Alpha  occ. eigenvalues --   -0.43056  -0.41304  -0.41173  -0.40537  -0.40278
 Alpha  occ. eigenvalues --   -0.40156  -0.38144  -0.37621  -0.36508  -0.35474
 Alpha  occ. eigenvalues --   -0.34477  -0.33987  -0.28157  -0.27387  -0.26132
 Alpha  occ. eigenvalues --   -0.25902
 Alpha virt. eigenvalues --    0.00976   0.02639   0.02889   0.03655   0.04524
 Alpha virt. eigenvalues --    0.05003   0.06680   0.07195   0.07800   0.08221
 Alpha virt. eigenvalues --    0.09694   0.10011   0.10453   0.11702   0.11804

 Mulliken charges:
               1
     1  C    0.276721
     2  C   -0.143783
     3  H    0.221351
     4  C   -0.415578
     5  H    0.137480
     6  H    0.133616
     7  H    0.144726
     8  O   -0.387863
     9  N   -0.209782
    10  H    0.175033
    11  N   -0.128753
    12  H    0.126481
    13  C   -0.169941
    14  H    0.112129
    15  H    0.120343
    16  H    0.085467
    17  C    0.305404
    18  C   -0.319958
    19  H    0.093184
    20  H    0.114126
    21  H    0.121720
    22  O   -0.407339
    23  C   -0.164633
    24  H    0.217867
    25  C   -0.459308
    26  H    0.156835
    27  H    0.148529
    28  H    0.142319
    29  C   -0.444246
    30  H    0.211293
    31  H    0.206557
 Sum of Mulliken charges =   0.00000

 Dipole moment (field-independent basis, Debye):
    X=             -3.5183    Y=             -1.9335    Z=             -2.1320  Tot=              4.5456
 Quadrupole moment (field-independent basis, Debye-Ang):
   XX=            -83.6139   YY=            -71.1308   ZZ=            -81.9603
   XY=            -11.3060   XZ=              3.0478   YZ=             -3.7829

 Normal termination of Gaussian 09 at Thu Jun 19 02:39:07 2014.
