 Gaussian 09, Revision D.01,
 Gaussian 09:  EM64L-G09RevD.01 24-Apr-2013

 ----------------------------------------------------------------------
 #p nmr=(giao,mixed,spinspin) m06/cc-pvtz scf=tight integral=(grid=ultr
 afine)
 ----------------------------------------------------------------------

 ------------------
 NMR spin-spin scan
 ------------------
 Symbolic Z-matrix:
 Charge =  0 Multiplicity = 1

 SCF Done:  E(RM06) =  -613.625650529     A.U. after   16 cycles
 Normal termination of Gaussian 09 at Wed Jun 18 22:12:06 2014.

 ----------------------------------------------------------------------
 #P Geom=AllCheck Guess=TCheck SCRF=Check GenChk RM06/ChkBas NMR=ReadFC
  IOp(3/6=22)
 ----------------------------------------------------------------------

 Structure from the checkpoint file:  "/home/ztw1e12/leucine_scan/leucine_chi2_scan/Gau-30761.chk"
 ------------------
 NMR spin-spin scan
 ------------------
 Charge =  0 Multiplicity = 1

                         Standard orientation:
 ---------------------------------------------------------------------
 Center     Atomic      Atomic             Coordinates (Angstroms)
 Number     Number       Type             X           Y           Z
 ---------------------------------------------------------------------
      1          6           0       -0.020046    1.198162   -0.107891
      2          6           0       -0.195589   -0.007949    0.807601
      3          1           0       -0.580172    0.356094    1.764548
      4          6           0        3.160841   -0.500576   -0.447051
      5          1           0        3.656764   -0.869514   -1.347233
      6          1           0        3.009753    0.576179   -0.563927
      7          1           0        3.840373   -0.652206    0.396787
      8          8           0       -0.153690    1.133773   -1.326976
      9          7           0       -1.138381   -0.952365    0.259981
     10          1           0       -0.803579   -1.850165   -0.054144
     11          7           0        0.331643    2.326096    0.518487
     12          1           0        0.471367    2.301363    1.516300
     13          6           0        0.691870    3.518084   -0.214900
     14          1           0        1.547547    3.337547   -0.867913
     15          1           0       -0.138829    3.863260   -0.830104
     16          1           0        0.948971    4.302161    0.490537
     17          6           0       -2.426252   -0.627983    0.058338
     18          6           0       -3.288894   -1.676324   -0.562811
     19          1           0       -2.777377   -2.626425   -0.701211
     20          1           0       -4.168924   -1.825362    0.061504
     21          1           0       -3.634578   -1.314069   -1.531333
     22          8           0       -2.871758    0.475098    0.373264
     23          6           0        1.848376   -1.222474   -0.203595
     24          1           0        1.202682   -1.047875   -1.070352
     25          6           0        2.086328   -2.717591   -0.091588
     26          1           0        2.729050   -2.938414    0.765973
     27          1           0        1.151321   -3.266423    0.045416
     28          1           0        2.578925   -3.107329   -0.984865
     29          6           0        1.150618   -0.677718    1.054668
     30          1           0        0.981693   -1.486344    1.771629
     31          1           0        1.792252    0.046646    1.562175
 ---------------------------------------------------------------------

 SCF Done:  E(RM06) =  -613.581994573     A.U. after    9 cycles

      1  C    Isotropic =    -0.7707   Anisotropy =   132.7356

      2  C    Isotropic =   124.3307   Anisotropy =    29.3401

      3  H    Isotropic =    28.2768   Anisotropy =     4.6497

      4  C    Isotropic =   151.1131   Anisotropy =    36.2195

      5  H    Isotropic =    31.0998   Anisotropy =    10.0567

      6  H    Isotropic =    31.0064   Anisotropy =     7.2592

      7  H    Isotropic =    31.3989   Anisotropy =     7.5384

      8  O    Isotropic =   -89.6370   Anisotropy =   674.5243

      9  N    Isotropic =   115.3360   Anisotropy =   139.8345

     10  H    Isotropic =    26.4731   Anisotropy =     8.5798

     11  N    Isotropic =   142.8531   Anisotropy =   119.0797

     12  H    Isotropic =    27.0239   Anisotropy =     6.7064

     13  C    Isotropic =   149.9478   Anisotropy =    38.8030

     14  H    Isotropic =    29.2308   Anisotropy =     8.5158

     15  H    Isotropic =    28.8740   Anisotropy =     9.2724

     16  H    Isotropic =    29.7609   Anisotropy =     9.0446

     17  C    Isotropic =     2.5718   Anisotropy =   131.8946

     18  C    Isotropic =   156.2368   Anisotropy =    40.9334

     19  H    Isotropic =    30.6239   Anisotropy =     5.4104

     20  H    Isotropic =    30.0584   Anisotropy =     7.4641

     21  H    Isotropic =    29.8252   Anisotropy =     6.5239

     22  O    Isotropic =  -102.7821   Anisotropy =   663.4674

     23  C    Isotropic =   158.0089   Anisotropy =    11.9851

     24  H    Isotropic =    29.9256   Anisotropy =     6.6884

     25  C    Isotropic =   149.4838   Anisotropy =    37.8661

     26  H    Isotropic =    31.1506   Anisotropy =     7.5969

     27  H    Isotropic =    31.0952   Anisotropy =     7.9215

     28  H    Isotropic =    30.9218   Anisotropy =     9.9824

     29  C    Isotropic =   137.1894   Anisotropy =    27.4520

     30  H    Isotropic =    30.5274   Anisotropy =     4.8726

     31  H    Isotropic =    30.6410   Anisotropy =     4.4820

 The electronic state is 1-A.
 Alpha  occ. eigenvalues --  -19.17264 -19.16622 -14.41899 -14.41622 -10.33392
 Alpha  occ. eigenvalues --  -10.33373 -10.29267 -10.27059 -10.25509 -10.25041
 Alpha  occ. eigenvalues --  -10.23795 -10.23686 -10.23184  -1.05414  -1.04131
 Alpha  occ. eigenvalues --   -0.94448  -0.94199  -0.83837  -0.78646  -0.74334
 Alpha  occ. eigenvalues --   -0.71993  -0.70354  -0.65885  -0.60710  -0.59748
 Alpha  occ. eigenvalues --   -0.58682  -0.54535  -0.50779  -0.49775  -0.48027
 Alpha  occ. eigenvalues --   -0.46815  -0.46427  -0.45476  -0.45124  -0.44437
 Alpha  occ. eigenvalues --   -0.42777  -0.41610  -0.40935  -0.40517  -0.40268
 Alpha  occ. eigenvalues --   -0.40094  -0.38170  -0.37601  -0.36543  -0.35138
 Alpha  occ. eigenvalues --   -0.34412  -0.34062  -0.28328  -0.27474  -0.26174
 Alpha  occ. eigenvalues --   -0.25980
 Alpha virt. eigenvalues --    0.01330   0.02092   0.02647   0.03729   0.04541
 Alpha virt. eigenvalues --    0.05247   0.06815   0.07085   0.07769   0.08436
 Alpha virt. eigenvalues --    0.09948   0.10382   0.10626   0.11143   0.11977

 Mulliken charges:
               1
     1  C    0.271754
     2  C   -0.122867
     3  H    0.213270
     4  C   -0.431514
     5  H    0.137696
     6  H    0.152439
     7  H    0.140880
     8  O   -0.392678
     9  N   -0.198977
    10  H    0.168100
    11  N   -0.113747
    12  H    0.123198
    13  C   -0.180437
    14  H    0.108655
    15  H    0.126121
    16  H    0.087276
    17  C    0.304943
    18  C   -0.319662
    19  H    0.092852
    20  H    0.114512
    21  H    0.122323
    22  O   -0.405914
    23  C   -0.188862
    24  H    0.220180
    25  C   -0.430206
    26  H    0.145887
    27  H    0.137903
    28  H    0.140578
    29  C   -0.438721
    30  H    0.210366
    31  H    0.204654
 Sum of Mulliken charges =   0.00000

 Dipole moment (field-independent basis, Debye):
    X=              3.0943    Y=             -1.6688    Z=              2.3277  Tot=              4.2164
 Quadrupole moment (field-independent basis, Debye-Ang):
   XX=            -85.4986   YY=            -69.5566   ZZ=            -81.3471
   XY=              9.3479   XZ=              3.3140   YZ=              5.0919

 Normal termination of Gaussian 09 at Thu Jun 19 02:01:42 2014.
