 Gaussian 09, Revision D.01,
 Gaussian 09:  EM64L-G09RevD.01 24-Apr-2013

 ----------------------------------------------------------------------
 #p nmr=(giao,mixed,spinspin) m06/cc-pvtz scf=tight integral=(grid=ultr
 afine)
 ----------------------------------------------------------------------

 ------------------
 NMR spin-spin scan
 ------------------
 Symbolic Z-matrix:
 Charge =  0 Multiplicity = 1

 SCF Done:  E(RM06) =  -613.617445506     A.U. after   16 cycles
 Normal termination of Gaussian 09 at Wed Jun 18 11:16:30 2014.

 ----------------------------------------------------------------------
 #P Geom=AllCheck Guess=TCheck SCRF=Check GenChk RM06/ChkBas NMR=ReadFC
  IOp(3/6=22)
 ----------------------------------------------------------------------

 Structure from the checkpoint file:  "/home/ztw1e12/leucine_scan/leucine_chi2_scan/Gau-8601.chk"
 ------------------
 NMR spin-spin scan
 ------------------
 Charge =  0 Multiplicity = 1

                         Standard orientation:
 ---------------------------------------------------------------------
 Center     Atomic      Atomic             Coordinates (Angstroms)
 Number     Number       Type             X           Y           Z
 ---------------------------------------------------------------------
      1          6           0       -0.251027    1.062116    0.144589
      2          6           0        0.199717   -0.048042   -0.803284
      3          1           0        0.515104    0.462533   -1.719337
      4          6           0       -1.143095   -1.965530    1.199654
      5          1           0       -1.816113   -2.574671    1.806848
      6          1           0       -0.169322   -2.457334    1.229515
      7          1           0       -1.048616   -0.995445    1.687639
      8          8           0        0.029426    1.089480    1.338919
      9          7           0        1.346934   -0.755241   -0.291714
     10          1           0        1.249763   -1.715739   -0.004952
     11          7           0       -0.974429    2.024010   -0.440815
     12          1           0       -1.203983    1.935714   -1.418078
     13          6           0       -1.579217    3.085796    0.330177
     14          1           0       -2.287706    2.690825    1.060891
     15          1           0       -0.821332    3.658347    0.864620
     16          1           0       -2.108383    3.753330   -0.342931
     17          6           0        2.538286   -0.151015   -0.148545
     18          6           0        3.643235   -0.982129    0.415362
     19          1           0        3.362438   -2.021397    0.571389
     20          1           0        4.499790   -0.933734   -0.256072
     21          1           0        3.951327   -0.550499    1.367888
     22          8           0        2.712802    1.025063   -0.465791
     23          6           0       -1.718295   -1.839454   -0.202055
     24          1           0       -1.784875   -2.845962   -0.623804
     25          6           0       -3.135723   -1.296515   -0.077607
     26          1           0       -3.119029   -0.292385    0.360249
     27          1           0       -3.629789   -1.227756   -1.048682
     28          1           0       -3.747697   -1.928159    0.569787
     29          6           0       -0.931257   -0.985506   -1.226030
     30          1           0       -0.480403   -1.654174   -1.964142
     31          1           0       -1.642269   -0.379540   -1.791711
 ---------------------------------------------------------------------

 SCF Done:  E(RM06) =  -613.573769148     A.U. after    9 cycles

      1  C    Isotropic =    -1.0798   Anisotropy =   132.6084

      2  C    Isotropic =   124.7088   Anisotropy =    30.2244

      3  H    Isotropic =    27.9868   Anisotropy =     4.2674

      4  C    Isotropic =   158.8021   Anisotropy =    22.0948

      5  H    Isotropic =    31.2466   Anisotropy =     9.5241

      6  H    Isotropic =    31.1142   Anisotropy =     7.7290

      7  H    Isotropic =    30.0478   Anisotropy =     7.3097

      8  O    Isotropic =   -96.8487   Anisotropy =   686.0464

      9  N    Isotropic =   113.3848   Anisotropy =   133.4681

     10  H    Isotropic =    26.2105   Anisotropy =     8.1656

     11  N    Isotropic =   142.0960   Anisotropy =   115.7725

     12  H    Isotropic =    26.9623   Anisotropy =     6.5741

     13  C    Isotropic =   149.8771   Anisotropy =    38.3787

     14  H    Isotropic =    29.2157   Anisotropy =     8.4908

     15  H    Isotropic =    28.8146   Anisotropy =     9.2874

     16  H    Isotropic =    29.7380   Anisotropy =     8.9773

     17  C    Isotropic =     3.1873   Anisotropy =   131.3286

     18  C    Isotropic =   155.9146   Anisotropy =    41.2312

     19  H    Isotropic =    30.6275   Anisotropy =     5.3968

     20  H    Isotropic =    30.0471   Anisotropy =     7.4592

     21  H    Isotropic =    29.7736   Anisotropy =     6.4678

     22  O    Isotropic =  -102.1673   Anisotropy =   667.5098

     23  C    Isotropic =   153.8093   Anisotropy =    17.9849

     24  H    Isotropic =    30.2417   Anisotropy =     8.5664

     25  C    Isotropic =   147.6646   Anisotropy =    40.4540

     26  H    Isotropic =    30.9905   Anisotropy =     4.8692

     27  H    Isotropic =    31.0125   Anisotropy =     8.8710

     28  H    Isotropic =    31.1041   Anisotropy =    10.0206

     29  C    Isotropic =   142.3402   Anisotropy =    21.0728

     30  H    Isotropic =    29.8256   Anisotropy =     6.9212

     31  H    Isotropic =    30.4619   Anisotropy =     4.5632

 The electronic state is 1-A.
 Alpha  occ. eigenvalues --  -19.17327 -19.16467 -14.41945 -14.41486 -10.33492
 Alpha  occ. eigenvalues --  -10.33259 -10.29386 -10.27104 -10.25822 -10.25612
 Alpha  occ. eigenvalues --  -10.23699 -10.23396 -10.22743  -1.05445  -1.04066
 Alpha  occ. eigenvalues --   -0.94398  -0.94187  -0.83608  -0.78620  -0.74311
 Alpha  occ. eigenvalues --   -0.72078  -0.69983  -0.66456  -0.60749  -0.59644
 Alpha  occ. eigenvalues --   -0.58170  -0.54770  -0.50764  -0.49464  -0.48164
 Alpha  occ. eigenvalues --   -0.46861  -0.46521  -0.45347  -0.44889  -0.44495
 Alpha  occ. eigenvalues --   -0.42608  -0.41439  -0.41010  -0.40567  -0.40121
 Alpha  occ. eigenvalues --   -0.39813  -0.38499  -0.37707  -0.36543  -0.35264
 Alpha  occ. eigenvalues --   -0.34213  -0.33147  -0.28293  -0.27509  -0.26117
 Alpha  occ. eigenvalues --   -0.25897
 Alpha virt. eigenvalues --    0.00927   0.02320   0.02534   0.03664   0.04432
 Alpha virt. eigenvalues --    0.04878   0.06781   0.07423   0.07702   0.08102
 Alpha virt. eigenvalues --    0.09798   0.10479   0.10849   0.11532   0.12181

 Mulliken charges:
               1
     1  C    0.252762
     2  C   -0.131087
     3  H    0.229010
     4  C   -0.490273
     5  H    0.141413
     6  H    0.137879
     7  H    0.197100
     8  O   -0.384130
     9  N   -0.198300
    10  H    0.165127
    11  N   -0.113859
    12  H    0.127225
    13  C   -0.181473
    14  H    0.108753
    15  H    0.128119
    16  H    0.087848
    17  C    0.304584
    18  C   -0.318200
    19  H    0.092579
    20  H    0.113945
    21  H    0.122154
    22  O   -0.406471
    23  C   -0.095924
    24  H    0.161434
    25  C   -0.436983
    26  H    0.155863
    27  H    0.133633
    28  H    0.141603
    29  C   -0.432601
    30  H    0.191730
    31  H    0.196539
 Sum of Mulliken charges =   0.00000

 Dipole moment (field-independent basis, Debye):
    X=             -3.0194    Y=             -2.5383    Z=             -2.3457  Tot=              4.5893
 Quadrupole moment (field-independent basis, Debye-Ang):
   XX=            -79.9568   YY=            -74.4369   ZZ=            -81.7745
   XY=            -12.1693   XZ=              4.1435   YZ=             -2.8426

 Normal termination of Gaussian 09 at Wed Jun 18 15:11:35 2014.
