 Gaussian 09, Revision D.01,
 Gaussian 09:  EM64L-G09RevD.01 24-Apr-2013

 ----------------------------------------------------------------------
 #p nmr=(giao,mixed,spinspin) m06/cc-pvtz scf=tight integral=(grid=ultr
 afine)
 ----------------------------------------------------------------------

 ------------------
 NMR spin-spin scan
 ------------------
 Symbolic Z-matrix:
 Charge =  0 Multiplicity = 1

 SCF Done:  E(RM06) =  -613.627549098     A.U. after   16 cycles
 Normal termination of Gaussian 09 at Tue Jun 17 22:31:30 2014.

 ----------------------------------------------------------------------
 #P Geom=AllCheck Guess=TCheck SCRF=Check GenChk RM06/ChkBas NMR=ReadFC
  IOp(3/6=22)
 ----------------------------------------------------------------------

 Structure from the checkpoint file:  "/home/ztw1e12/leucine_scan/leucine_chi2_scan/Gau-4507.chk"
 ------------------
 NMR spin-spin scan
 ------------------
 Charge =  0 Multiplicity = 1

                         Standard orientation:
 ---------------------------------------------------------------------
 Center     Atomic      Atomic             Coordinates (Angstroms)
 Number     Number       Type             X           Y           Z
 ---------------------------------------------------------------------
      1          6           0        0.093898    1.198218    0.158974
      2          6           0        0.136014   -0.005494   -0.775892
      3          1           0        0.534123    0.350649   -1.730640
      4          6           0       -3.461744   -1.461500   -0.391408
      5          1           0       -4.198035   -1.601797    0.402029
      6          1           0       -3.930547   -0.878662   -1.187524
      7          1           0       -3.217364   -2.446915   -0.798757
      8          8           0        0.345587    1.123985    1.358279
      9          7           0        1.034554   -1.022584   -0.287385
     10          1           0        0.659423   -1.880122    0.085391
     11          7           0       -0.269482    2.342314   -0.429291
     12          1           0       -0.474570    2.337371   -1.415755
     13          6           0       -0.451801    3.560208    0.325538
     14          1           0       -1.240028    3.450185    1.071759
     15          1           0        0.467449    3.841768    0.839576
     16          1           0       -0.725977    4.359150   -0.356394
     17          6           0        2.356990   -0.799387   -0.206725
     18          6           0        3.188350   -1.903283    0.357475
     19          1           0        2.609516   -2.786013    0.620615
     20          1           0        3.952449   -2.175787   -0.369971
     21          1           0        3.700458   -1.533351    1.245678
     22          8           0        2.859016    0.258609   -0.585695
     23          6           0       -2.204901   -0.791805    0.135625
     24          1           0       -2.474619    0.173143    0.582654
     25          6           0       -1.607748   -1.672241    1.220571
     26          1           0       -1.297051   -2.636057    0.801937
     27          1           0       -0.750138   -1.216962    1.716191
     28          1           0       -2.354947   -1.883318    1.988375
     29          6           0       -1.271379   -0.536074   -1.045281
     30          1           0       -1.157377   -1.470497   -1.608419
     31          1           0       -1.761159    0.166505   -1.723957
 ---------------------------------------------------------------------

 SCF Done:  E(RM06) =  -613.583904009     A.U. after    9 cycles

      1  C    Isotropic =     0.0265   Anisotropy =   131.7981

      2  C    Isotropic =   124.3538   Anisotropy =    30.2441

      3  H    Isotropic =    27.9449   Anisotropy =     4.3268

      4  C    Isotropic =   150.6250   Anisotropy =    42.3772

      5  H    Isotropic =    30.9004   Anisotropy =     9.9706

      6  H    Isotropic =    31.0092   Anisotropy =     9.6027

      7  H    Isotropic =    31.3903   Anisotropy =     7.2237

      8  O    Isotropic =   -86.4235   Anisotropy =   669.4837

      9  N    Isotropic =   111.4476   Anisotropy =   137.8789

     10  H    Isotropic =    26.1456   Anisotropy =     8.9443

     11  N    Isotropic =   143.0142   Anisotropy =   117.5671

     12  H    Isotropic =    27.0740   Anisotropy =     7.0113

     13  C    Isotropic =   150.0854   Anisotropy =    38.8848

     14  H    Isotropic =    29.1944   Anisotropy =     8.8368

     15  H    Isotropic =    28.8807   Anisotropy =     9.2597

     16  H    Isotropic =    29.7592   Anisotropy =     9.0256

     17  C    Isotropic =     2.8804   Anisotropy =   131.7621

     18  C    Isotropic =   156.0109   Anisotropy =    40.9654

     19  H    Isotropic =    30.6364   Anisotropy =     5.2552

     20  H    Isotropic =    30.0414   Anisotropy =     7.4413

     21  H    Isotropic =    29.8373   Anisotropy =     6.5858

     22  O    Isotropic =  -100.9002   Anisotropy =   664.1932

     23  C    Isotropic =   151.9066   Anisotropy =     7.7431

     24  H    Isotropic =    30.5130   Anisotropy =     5.8816

     25  C    Isotropic =   154.9809   Anisotropy =    29.2559

     26  H    Isotropic =    31.7941   Anisotropy =     6.2409

     27  H    Isotropic =    29.8217   Anisotropy =     6.6489

     28  H    Isotropic =    30.9654   Anisotropy =     9.4175

     29  C    Isotropic =   136.8245   Anisotropy =    25.3140

     30  H    Isotropic =    30.8741   Anisotropy =     5.0602

     31  H    Isotropic =    30.1123   Anisotropy =     5.9253

 The electronic state is 1-A.
 Alpha  occ. eigenvalues --  -19.17324 -19.16509 -14.41947 -14.41434 -10.33430
 Alpha  occ. eigenvalues --  -10.33274 -10.29211 -10.27086 -10.25741 -10.25395
 Alpha  occ. eigenvalues --  -10.23704 -10.23444 -10.23057  -1.05427  -1.04087
 Alpha  occ. eigenvalues --   -0.94372  -0.94179  -0.83995  -0.78622  -0.74331
 Alpha  occ. eigenvalues --   -0.72005  -0.70209  -0.66107  -0.60984  -0.59581
 Alpha  occ. eigenvalues --   -0.58296  -0.54670  -0.50821  -0.49645  -0.48727
 Alpha  occ. eigenvalues --   -0.46871  -0.46431  -0.45333  -0.44898  -0.44305
 Alpha  occ. eigenvalues --   -0.42471  -0.41425  -0.40753  -0.40370  -0.40168
 Alpha  occ. eigenvalues --   -0.39985  -0.38927  -0.37594  -0.36539  -0.35058
 Alpha  occ. eigenvalues --   -0.34735  -0.33886  -0.28258  -0.27544  -0.26146
 Alpha  occ. eigenvalues --   -0.25958
 Alpha virt. eigenvalues --    0.01047   0.02770   0.02830   0.03852   0.04507
 Alpha virt. eigenvalues --    0.04976   0.06396   0.07370   0.07654   0.08579
 Alpha virt. eigenvalues --    0.09431   0.10762   0.10937   0.11895   0.12106

 Mulliken charges:
               1
     1  C    0.299163
     2  C   -0.167782
     3  H    0.226809
     4  C   -0.421112
     5  H    0.138179
     6  H    0.132640
     7  H    0.145480
     8  O   -0.397514
     9  N   -0.202452
    10  H    0.179239
    11  N   -0.125999
    12  H    0.124955
    13  C   -0.173192
    14  H    0.107669
    15  H    0.122992
    16  H    0.086108
    17  C    0.302137
    18  C   -0.318387
    19  H    0.093837
    20  H    0.114444
    21  H    0.121332
    22  O   -0.408118
    23  C   -0.094369
    24  H    0.177950
    25  C   -0.510559
    26  H    0.147681
    27  H    0.179370
    28  H    0.147595
    29  C   -0.425196
    30  H    0.206468
    31  H    0.190629
 Sum of Mulliken charges =   0.00000

 Dipole moment (field-independent basis, Debye):
    X=             -3.5383    Y=             -1.2397    Z=             -2.0281  Tot=              4.2626
 Quadrupole moment (field-independent basis, Debye-Ang):
   XX=            -85.9636   YY=            -68.4085   ZZ=            -82.2228
   XY=             -8.7630   XZ=              3.1765   YZ=             -4.5566

 Normal termination of Gaussian 09 at Wed Jun 18 02:24:09 2014.
