 Gaussian 09, Revision D.01,
 Gaussian 09:  EM64L-G09RevD.01 24-Apr-2013

 ----------------------------------------------------------------------
 #p nmr=(giao,mixed,spinspin) m06/cc-pvtz scf=tight integral=(grid=ultr
 afine)
 ----------------------------------------------------------------------

 ------------------
 NMR spin-spin scan
 ------------------
 Symbolic Z-matrix:
 Charge =  0 Multiplicity = 1

 SCF Done:  E(RM06) =  -613.625106770     A.U. after   16 cycles
 Normal termination of Gaussian 09 at Wed Jun 18 22:03:47 2014.

 ----------------------------------------------------------------------
 #P Geom=AllCheck Guess=TCheck SCRF=Check GenChk RM06/ChkBas NMR=ReadFC
  IOp(3/6=22)
 ----------------------------------------------------------------------

 Structure from the checkpoint file:  "/home/ztw1e12/leucine_scan/leucine_chi2_scan/Gau-9691.chk"
 ------------------
 NMR spin-spin scan
 ------------------
 Charge =  0 Multiplicity = 1

                         Standard orientation:
 ---------------------------------------------------------------------
 Center     Atomic      Atomic             Coordinates (Angstroms)
 Number     Number       Type             X           Y           Z
 ---------------------------------------------------------------------
      1          6           0        0.046360    1.233407    0.157342
      2          6           0        0.172684    0.019790   -0.761656
      3          1           0        0.568339    0.377056   -1.716045
      4          6           0       -3.393866   -0.745994    0.164954
      5          1           0       -3.945188   -1.149861    1.016473
      6          1           0       -3.507835    0.340861    0.170051
      7          1           0       -3.862836   -1.126321   -0.747675
      8          8           0        0.321108    1.192776    1.353565
      9          7           0        1.105885   -0.938015   -0.223443
     10          1           0        0.752687   -1.741704    0.271642
     11          7           0       -0.407059    2.340639   -0.438669
     12          1           0       -0.635114    2.304239   -1.419548
     13          6           0       -0.651592    3.559483    0.298418
     14          1           0       -1.449934    3.430908    1.030806
     15          1           0        0.246806    3.879264    0.825947
     16          1           0       -0.941042    4.339692   -0.398784
     17          6           0        2.418544   -0.657790   -0.127474
     18          6           0        3.272658   -1.691607    0.528288
     19          1           0        2.708477   -2.549992    0.886136
     20          1           0        4.024000   -2.029736   -0.185158
     21          1           0        3.800387   -1.232720    1.363971
     22          8           0        2.894416    0.383667   -0.576500
     23          6           0       -1.930927   -1.147906    0.211119
     24          1           0       -1.485312   -0.714985    1.114185
     25          6           0       -1.831164   -2.662252    0.301985
     26          1           0       -2.320721   -3.120694   -0.562599
     27          1           0       -0.802397   -3.029153    0.320407
     28          1           0       -2.328385   -3.033224    1.200337
     29          6           0       -1.195986   -0.598970   -1.020610
     30          1           0       -1.075076   -1.393357   -1.763784
     31          1           0       -1.803104    0.170848   -1.502307
 ---------------------------------------------------------------------

 SCF Done:  E(RM06) =  -613.581431988     A.U. after    9 cycles

      1  C    Isotropic =    -1.0404   Anisotropy =   132.0713

      2  C    Isotropic =   124.0131   Anisotropy =    31.5404

      3  H    Isotropic =    27.9984   Anisotropy =     4.3032

      4  C    Isotropic =   150.0643   Anisotropy =    38.1356

      5  H    Isotropic =    31.0807   Anisotropy =     9.9855

      6  H    Isotropic =    31.0441   Anisotropy =     8.0891

      7  H    Isotropic =    31.2583   Anisotropy =     7.5035

      8  O    Isotropic =   -93.5626   Anisotropy =   679.3364

      9  N    Isotropic =   117.1161   Anisotropy =   133.9182

     10  H    Isotropic =    26.0929   Anisotropy =     9.0815

     11  N    Isotropic =   143.0481   Anisotropy =   116.1495

     12  H    Isotropic =    27.0677   Anisotropy =     6.9102

     13  C    Isotropic =   150.1364   Anisotropy =    38.9969

     14  H    Isotropic =    29.2564   Anisotropy =     8.9695

     15  H    Isotropic =    28.8396   Anisotropy =     9.0685

     16  H    Isotropic =    29.7587   Anisotropy =     9.0108

     17  C    Isotropic =     1.9215   Anisotropy =   132.6502

     18  C    Isotropic =   155.9850   Anisotropy =    40.9028

     19  H    Isotropic =    30.6012   Anisotropy =     5.1668

     20  H    Isotropic =    29.9999   Anisotropy =     7.3146

     21  H    Isotropic =    29.8520   Anisotropy =     6.7306

     22  O    Isotropic =  -101.5837   Anisotropy =   668.9797

     23  C    Isotropic =   156.9276   Anisotropy =    12.0710

     24  H    Isotropic =    30.0956   Anisotropy =     6.6761

     25  C    Isotropic =   149.6399   Anisotropy =    37.3846

     26  H    Isotropic =    31.2049   Anisotropy =     7.4277

     27  H    Isotropic =    30.9967   Anisotropy =     7.2810

     28  H    Isotropic =    30.8367   Anisotropy =     9.8725

     29  C    Isotropic =   137.7960   Anisotropy =    25.6458

     30  H    Isotropic =    30.4752   Anisotropy =     4.6190

     31  H    Isotropic =    30.5865   Anisotropy =     4.8750

 The electronic state is 1-A.
 Alpha  occ. eigenvalues --  -19.17362 -19.16545 -14.42012 -14.41391 -10.33420
 Alpha  occ. eigenvalues --  -10.33288 -10.29156 -10.27144 -10.25548 -10.25364
 Alpha  occ. eigenvalues --  -10.24023 -10.23672 -10.23517  -1.05446  -1.04102
 Alpha  occ. eigenvalues --   -0.94377  -0.94215  -0.84002  -0.78703  -0.74322
 Alpha  occ. eigenvalues --   -0.72016  -0.70633  -0.65958  -0.60514  -0.59842
 Alpha  occ. eigenvalues --   -0.58827  -0.54855  -0.50654  -0.49553  -0.48303
 Alpha  occ. eigenvalues --   -0.46948  -0.46296  -0.45440  -0.45190  -0.44626
 Alpha  occ. eigenvalues --   -0.43137  -0.41624  -0.41100  -0.40570  -0.40270
 Alpha  occ. eigenvalues --   -0.40173  -0.38146  -0.37772  -0.36435  -0.35453
 Alpha  occ. eigenvalues --   -0.34735  -0.34141  -0.28292  -0.27542  -0.26259
 Alpha  occ. eigenvalues --   -0.25914
 Alpha virt. eigenvalues --    0.01242   0.02340   0.02574   0.03670   0.04370
 Alpha virt. eigenvalues --    0.05000   0.06769   0.07115   0.07487   0.08457
 Alpha virt. eigenvalues --    0.09966   0.10458   0.10737   0.11229   0.12044

 Mulliken charges:
               1
     1  C    0.276906
     2  C   -0.133730
     3  H    0.218816
     4  C   -0.424082
     5  H    0.137712
     6  H    0.137441
     7  H    0.144167
     8  O   -0.393342
     9  N   -0.212663
    10  H    0.180621
    11  N   -0.126121
    12  H    0.125665
    13  C   -0.170802
    14  H    0.106288
    15  H    0.123802
    16  H    0.086534
    17  C    0.302913
    18  C   -0.319966
    19  H    0.094309
    20  H    0.114733
    21  H    0.120658
    22  O   -0.405632
    23  C   -0.171936
    24  H    0.217776
    25  C   -0.435371
    26  H    0.147564
    27  H    0.134453
    28  H    0.142191
    29  C   -0.429524
    30  H    0.205521
    31  H    0.205098
 Sum of Mulliken charges =   0.00000

 Dipole moment (field-independent basis, Debye):
    X=             -3.6157    Y=             -1.4605    Z=             -1.8079  Tot=              4.2983
 Quadrupole moment (field-independent basis, Debye-Ang):
   XX=            -85.6670   YY=            -69.3849   ZZ=            -82.0276
   XY=             -8.9608   XZ=              3.9784   YZ=             -5.0799

 Normal termination of Gaussian 09 at Thu Jun 19 01:51:13 2014.
