 Gaussian 09, Revision D.01,
 Gaussian 09:  EM64L-G09RevD.01 24-Apr-2013

 ----------------------------------------------------------------------
 #p nmr=(giao,mixed,spinspin) m06/cc-pvtz scf=tight integral=(grid=ultr
 afine)
 ----------------------------------------------------------------------

 ------------------
 NMR spin-spin scan
 ------------------
 Symbolic Z-matrix:
 Charge =  0 Multiplicity = 1

 SCF Done:  E(RM06) =  -613.622032031     A.U. after   14 cycles
 Normal termination of Gaussian 09 at Wed Jun 18 09:14:31 2014.

 ----------------------------------------------------------------------
 #P Geom=AllCheck Guess=TCheck SCRF=Check GenChk RM06/ChkBas NMR=ReadFC
  IOp(3/6=22)
 ----------------------------------------------------------------------

 Structure from the checkpoint file:  "/home/ztw1e12/leucine_scan/leucine_chi2_scan/Gau-15623.chk"
 ------------------
 NMR spin-spin scan
 ------------------
 Charge =  0 Multiplicity = 1

                         Standard orientation:
 ---------------------------------------------------------------------
 Center     Atomic      Atomic             Coordinates (Angstroms)
 Number     Number       Type             X           Y           Z
 ---------------------------------------------------------------------
      1          6           0        0.717549   -1.039704    0.093564
      2          6           0       -0.075374   -0.077581   -0.792603
      3          1           0       -0.296941   -0.644986   -1.702100
      4          6           0        0.044515    3.238094    0.105406
      5          1           0        0.476741    4.106330    0.607210
      6          1           0       -0.471415    3.588970   -0.790296
      7          1           0       -0.705480    2.834304    0.793222
      8          8           0        0.424936   -1.267469    1.263154
      9          7           0       -1.340505    0.260039   -0.187124
     10          1           0       -1.434150    1.142052    0.290415
     11          7           0        1.741452   -1.647300   -0.516183
     12          1           0        1.940838   -1.427238   -1.478963
     13          6           0        2.636971   -2.522320    0.204090
     14          1           0        3.155739   -1.986891    1.001794
     15          1           0        2.094099   -3.355473    0.650535
     16          1           0        3.374391   -2.919273   -0.487045
     17          6           0       -2.335330   -0.638409   -0.078029
     18          6           0       -3.569444   -0.179961    0.626396
     19          1           0       -3.502415    0.843474    0.988941
     20          1           0       -4.413810   -0.264717   -0.057579
     21          1           0       -3.762549   -0.847426    1.465878
     22          8           0       -2.246705   -1.769937   -0.552158
     23          6           0        1.130764    2.226348   -0.228461
     24          1           0        1.912283    2.787482   -0.753195
     25          6           0        1.752591    1.676196    1.040308
     26          1           0        1.005430    1.185191    1.667511
     27          1           0        2.548398    0.955974    0.833312
     28          1           0        2.187301    2.488022    1.626926
     29          6           0        0.694300    1.163418   -1.245213
     30          1           0        0.091315    1.649219   -2.017188
     31          1           0        1.588499    0.798570   -1.756950
 ---------------------------------------------------------------------

 SCF Done:  E(RM06) =  -613.578370265     A.U. after    9 cycles

      1  C    Isotropic =    -1.2031   Anisotropy =   132.3503

      2  C    Isotropic =   124.9044   Anisotropy =    34.1951

      3  H    Isotropic =    27.7193   Anisotropy =     4.0813

      4  C    Isotropic =   150.0310   Anisotropy =    37.1918

      5  H    Isotropic =    30.6530   Anisotropy =     9.9434

      6  H    Isotropic =    30.7442   Anisotropy =     8.3022

      7  H    Isotropic =    31.0461   Anisotropy =     5.1936

      8  O    Isotropic =  -102.7778   Anisotropy =   692.2538

      9  N    Isotropic =   116.6074   Anisotropy =   133.2782

     10  H    Isotropic =    25.9439   Anisotropy =     9.7040

     11  N    Isotropic =   143.6758   Anisotropy =   111.3681

     12  H    Isotropic =    27.0128   Anisotropy =     7.0801

     13  C    Isotropic =   149.9032   Anisotropy =    38.4808

     14  H    Isotropic =    29.2374   Anisotropy =     8.6029

     15  H    Isotropic =    28.8411   Anisotropy =     9.3202

     16  H    Isotropic =    29.7286   Anisotropy =     9.0306

     17  C    Isotropic =     2.6209   Anisotropy =   131.9508

     18  C    Isotropic =   155.6669   Anisotropy =    41.1907

     19  H    Isotropic =    30.6104   Anisotropy =     4.9821

     20  H    Isotropic =    29.9910   Anisotropy =     7.2900

     21  H    Isotropic =    29.7876   Anisotropy =     6.7064

     22  O    Isotropic =   -99.6225   Anisotropy =   670.0371

     23  C    Isotropic =   151.0692   Anisotropy =    12.0420

     24  H    Isotropic =    30.1683   Anisotropy =     8.4689

     25  C    Isotropic =   158.0382   Anisotropy =    23.6273

     26  H    Isotropic =    30.6397   Anisotropy =     5.4894

     27  H    Isotropic =    31.1401   Anisotropy =     7.3280

     28  H    Isotropic =    31.0850   Anisotropy =     9.6222

     29  C    Isotropic =   139.9066   Anisotropy =    14.3246

     30  H    Isotropic =    30.1647   Anisotropy =     6.2828

     31  H    Isotropic =    30.0880   Anisotropy =     6.4529

 The electronic state is 1-A.
 Alpha  occ. eigenvalues --  -19.17241 -19.16302 -14.41965 -14.41210 -10.33426
 Alpha  occ. eigenvalues --  -10.33099 -10.29166 -10.27170 -10.25812 -10.25780
 Alpha  occ. eigenvalues --  -10.24217 -10.23542 -10.22926  -1.05368  -1.03915
 Alpha  occ. eigenvalues --   -0.94331  -0.94064  -0.83885  -0.78586  -0.74226
 Alpha  occ. eigenvalues --   -0.72101  -0.70562  -0.66687  -0.60757  -0.59658
 Alpha  occ. eigenvalues --   -0.58143  -0.54882  -0.50161  -0.49359  -0.47769
 Alpha  occ. eigenvalues --   -0.47319  -0.47078  -0.45418  -0.45251  -0.44547
 Alpha  occ. eigenvalues --   -0.42678  -0.42070  -0.40807  -0.40473  -0.40105
 Alpha  occ. eigenvalues --   -0.39491  -0.38629  -0.38248  -0.36422  -0.35508
 Alpha  occ. eigenvalues --   -0.34833  -0.33080  -0.28164  -0.27462  -0.26214
 Alpha  occ. eigenvalues --   -0.25698
 Alpha virt. eigenvalues --    0.00942   0.02387   0.02722   0.03648   0.04308
 Alpha virt. eigenvalues --    0.05062   0.06741   0.07057   0.08000   0.08357
 Alpha virt. eigenvalues --    0.09264   0.09971   0.11565   0.11842   0.12047

 Mulliken charges:
               1
     1  C    0.287746
     2  C   -0.151194
     3  H    0.229489
     4  C   -0.459272
     5  H    0.151313
     6  H    0.153400
     7  H    0.138224
     8  O   -0.386822
     9  N   -0.218718
    10  H    0.189672
    11  N   -0.135017
    12  H    0.130257
    13  C   -0.182163
    14  H    0.110453
    15  H    0.126645
    16  H    0.087615
    17  C    0.304776
    18  C   -0.324139
    19  H    0.094555
    20  H    0.114422
    21  H    0.120898
    22  O   -0.405990
    23  C   -0.114914
    24  H    0.156647
    25  C   -0.476542
    26  H    0.176210
    27  H    0.153289
    28  H    0.149570
    29  C   -0.405480
    30  H    0.200388
    31  H    0.184681
 Sum of Mulliken charges =   0.00000

 Dipole moment (field-independent basis, Debye):
    X=              2.6451    Y=              3.6463    Z=             -1.9081  Tot=              4.8921
 Quadrupole moment (field-independent basis, Debye-Ang):
   XX=            -72.8387   YY=            -82.1179   ZZ=            -81.3066
   XY=            -10.7248   XZ=             -6.7296   YZ=              1.9626

 Normal termination of Gaussian 09 at Wed Jun 18 13:11:17 2014.
