 Gaussian 09, Revision D.01,
 Gaussian 09:  EM64L-G09RevD.01 24-Apr-2013

 ----------------------------------------------------------------------
 #p nmr=(giao,mixed,spinspin) m06/cc-pvtz scf=tight integral=(grid=ultr
 afine)
 ----------------------------------------------------------------------

 ------------------
 NMR spin-spin scan
 ------------------
 Symbolic Z-matrix:
 Charge =  0 Multiplicity = 1

 SCF Done:  E(RM06) =  -613.626058973     A.U. after   16 cycles
 Normal termination of Gaussian 09 at Wed Jun 18 20:51:33 2014.

 ----------------------------------------------------------------------
 #P Geom=AllCheck Guess=TCheck SCRF=Check GenChk RM06/ChkBas NMR=ReadFC
  IOp(3/6=22)
 ----------------------------------------------------------------------

 Structure from the checkpoint file:  "/home/ztw1e12/leucine_scan/leucine_chi2_scan/Gau-23713.chk"
 ------------------
 NMR spin-spin scan
 ------------------
 Charge =  0 Multiplicity = 1

                         Standard orientation:
 ---------------------------------------------------------------------
 Center     Atomic      Atomic             Coordinates (Angstroms)
 Number     Number       Type             X           Y           Z
 ---------------------------------------------------------------------
      1          6           0        0.039726    1.188047    0.049262
      2          6           0        0.213012   -0.108849   -0.734947
      3          1           0        0.593319    0.186608   -1.717947
      4          6           0       -2.427045   -0.360775    1.124790
      5          1           0       -3.009002   -0.817072    1.928217
      6          1           0       -1.669809    0.268703    1.591194
      7          1           0       -3.106054    0.283331    0.556253
      8          8           0        0.469820    1.341865    1.188618
      9          7           0        1.201237   -0.959123   -0.117509
     10          1           0        0.897253   -1.788256    0.368550
     11          7           0       -0.607212    2.154964   -0.609614
     12          1           0       -0.958976    1.964850   -1.534710
     13          6           0       -0.949915    3.404115    0.030847
     14          1           0       -1.604056    3.238311    0.889383
     15          1           0       -0.056409    3.922766    0.377871
     16          1           0       -1.464661    4.038271   -0.684409
     17          6           0        2.503395   -0.629494   -0.082037
     18          6           0        3.408785   -1.577574    0.633804
     19          1           0        2.891891   -2.452481    1.022334
     20          1           0        4.195908   -1.897247   -0.048317
     21          1           0        3.886841   -1.048681    1.458234
     22          8           0        2.931981    0.391765   -0.618249
     23          6           0       -1.840884   -1.434993    0.225836
     24          1           0       -1.158343   -2.048556    0.828263
     25          6           0       -2.950462   -2.337374   -0.282354
     26          1           0       -3.651315   -1.763487   -0.896846
     27          1           0       -2.560071   -3.151918   -0.895482
     28          1           0       -3.514448   -2.774150    0.543698
     29          6           0       -1.080456   -0.883244   -0.977002
     30          1           0       -0.822452   -1.716791   -1.636825
     31          1           0       -1.759143   -0.243273   -1.551742
 ---------------------------------------------------------------------

 SCF Done:  E(RM06) =  -613.582439104     A.U. after   10 cycles

      1  C    Isotropic =    -1.1099   Anisotropy =   132.8296

      2  C    Isotropic =   126.4229   Anisotropy =    34.6367

      3  H    Isotropic =    27.8751   Anisotropy =     4.2551

      4  C    Isotropic =   157.2247   Anisotropy =    32.2215

      5  H    Isotropic =    31.2356   Anisotropy =     9.6455

      6  H    Isotropic =    30.1203   Anisotropy =     8.4352

      7  H    Isotropic =    31.8294   Anisotropy =     6.2377

      8  O    Isotropic =  -100.9811   Anisotropy =   689.2991

      9  N    Isotropic =   118.3194   Anisotropy =   133.7682

     10  H    Isotropic =    26.4290   Anisotropy =     8.7114

     11  N    Isotropic =   142.4785   Anisotropy =   113.1733

     12  H    Isotropic =    26.9923   Anisotropy =     6.6589

     13  C    Isotropic =   149.8556   Anisotropy =    38.4410

     14  H    Isotropic =    29.2550   Anisotropy =     8.2766

     15  H    Isotropic =    28.8503   Anisotropy =     9.5139

     16  H    Isotropic =    29.7493   Anisotropy =     9.0185

     17  C    Isotropic =     2.7980   Anisotropy =   131.7076

     18  C    Isotropic =   155.9489   Anisotropy =    41.0499

     19  H    Isotropic =    30.6243   Anisotropy =     5.4391

     20  H    Isotropic =    30.0264   Anisotropy =     7.3559

     21  H    Isotropic =    29.7657   Anisotropy =     6.6168

     22  O    Isotropic =  -102.8899   Anisotropy =   666.6958

     23  C    Isotropic =   153.8041   Anisotropy =     5.0318

     24  H    Isotropic =    30.5702   Anisotropy =     5.9758

     25  C    Isotropic =   150.5414   Anisotropy =    42.8700

     26  H    Isotropic =    31.2804   Anisotropy =     7.3128

     27  H    Isotropic =    31.0455   Anisotropy =     9.5282

     28  H    Isotropic =    30.8756   Anisotropy =     9.8863

     29  C    Isotropic =   135.9763   Anisotropy =    25.1384

     30  H    Isotropic =    30.2071   Anisotropy =     5.6392

     31  H    Isotropic =    30.6992   Anisotropy =     4.1971

 The electronic state is 1-A.
 Alpha  occ. eigenvalues --  -19.17272 -19.16305 -14.42023 -14.41392 -10.33480
 Alpha  occ. eigenvalues --  -10.33151 -10.29273 -10.27186 -10.25918 -10.25863
 Alpha  occ. eigenvalues --  -10.23695 -10.23602 -10.22882  -1.05425  -1.03905
 Alpha  occ. eigenvalues --   -0.94406  -0.94202  -0.84178  -0.78644  -0.74186
 Alpha  occ. eigenvalues --   -0.72088  -0.70305  -0.66378  -0.60604  -0.60085
 Alpha  occ. eigenvalues --   -0.58452  -0.54697  -0.51048  -0.49619  -0.47828
 Alpha  occ. eigenvalues --   -0.47355  -0.46952  -0.45335  -0.45017  -0.44220
 Alpha  occ. eigenvalues --   -0.42213  -0.41809  -0.40622  -0.40386  -0.40146
 Alpha  occ. eigenvalues --   -0.39396  -0.39234  -0.38351  -0.36433  -0.35375
 Alpha  occ. eigenvalues --   -0.34839  -0.33658  -0.28222  -0.27511  -0.26195
 Alpha  occ. eigenvalues --   -0.25762
 Alpha virt. eigenvalues --    0.01183   0.02050   0.02722   0.03566   0.04589
 Alpha virt. eigenvalues --    0.05019   0.06629   0.06952   0.07794   0.08097
 Alpha virt. eigenvalues --    0.09806   0.10517   0.10869   0.11567   0.12236

 Mulliken charges:
               1
     1  C    0.260069
     2  C   -0.155615
     3  H    0.224738
     4  C   -0.476090
     5  H    0.147702
     6  H    0.179418
     7  H    0.157430
     8  O   -0.380537
     9  N   -0.191165
    10  H    0.160991
    11  N   -0.123561
    12  H    0.128847
    13  C   -0.183231
    14  H    0.114222
    15  H    0.127345
    16  H    0.088032
    17  C    0.304624
    18  C   -0.318385
    19  H    0.091322
    20  H    0.114119
    21  H    0.121866
    22  O   -0.406054
    23  C   -0.165341
    24  H    0.183783
    25  C   -0.415680
    26  H    0.146714
    27  H    0.134822
    28  H    0.138721
    29  C   -0.412251
    30  H    0.204728
    31  H    0.198419
 Sum of Mulliken charges =   0.00000

 Dipole moment (field-independent basis, Debye):
    X=             -3.9629    Y=             -2.1684    Z=             -1.5882  Tot=              4.7884
 Quadrupole moment (field-independent basis, Debye-Ang):
   XX=            -85.3964   YY=            -71.4310   ZZ=            -81.1547
   XY=            -10.4695   XZ=              4.8710   YZ=             -5.2947

 Normal termination of Gaussian 09 at Thu Jun 19 00:42:57 2014.
