 Gaussian 09, Revision D.01,
 Gaussian 09:  EM64L-G09RevD.01 24-Apr-2013

 ----------------------------------------------------------------------
 #p nmr=(giao,mixed,spinspin) m06/cc-pvtz scf=tight integral=(grid=ultr
 afine)
 ----------------------------------------------------------------------

 ------------------
 NMR spin-spin scan
 ------------------
 Symbolic Z-matrix:
 Charge =  0 Multiplicity = 1

 SCF Done:  E(RM06) =  -613.624923477     A.U. after   15 cycles
 Normal termination of Gaussian 09 at Wed Jun 18 09:22:56 2014.

 ----------------------------------------------------------------------
 #P Geom=AllCheck Guess=TCheck SCRF=Check GenChk RM06/ChkBas NMR=ReadFC
  IOp(3/6=22)
 ----------------------------------------------------------------------

 Structure from the checkpoint file:  "/home/ztw1e12/leucine_scan/leucine_chi2_scan/Gau-2395.chk"
 ------------------
 NMR spin-spin scan
 ------------------
 Charge =  0 Multiplicity = 1

                         Standard orientation:
 ---------------------------------------------------------------------
 Center     Atomic      Atomic             Coordinates (Angstroms)
 Number     Number       Type             X           Y           Z
 ---------------------------------------------------------------------
      1          6           0        0.423916    1.012119   -0.113660
      2          6           0       -0.196772   -0.004729    0.834807
      3          1           0       -0.490572    0.548755    1.731904
      4          6           0        0.771906   -2.726858   -0.659931
      5          1           0        1.406641   -3.412739   -1.224290
      6          1           0        0.026983   -3.323483   -0.127210
      7          1           0        0.251596   -2.100973   -1.391505
      8          8           0        0.197543    1.021267   -1.320044
      9          7           0       -1.400677   -0.569111    0.268225
     10          1           0       -1.390047   -1.520947   -0.062541
     11          7           0        1.236362    1.896357    0.474923
     12          1           0        1.418305    1.801018    1.461862
     13          6           0        2.040765    2.813342   -0.299276
     14          1           0        2.725204    2.277307   -0.960475
     15          1           0        1.413103    3.460421   -0.911549
     16          1           0        2.621582    3.431981    0.378208
     17          6           0       -2.501534    0.174958    0.071426
     18          6           0       -3.673770   -0.517709   -0.541580
     19          1           0       -3.487588   -1.566646   -0.761870
     20          1           0       -4.521942   -0.437394    0.138137
     21          1           0       -3.944329    0.000298   -1.461628
     22          8           0       -2.549274    1.362235    0.392389
     23          6           0        1.605895   -1.888770    0.292908
     24          1           0        2.160862   -2.594860    0.922657
     25          6           0        2.647754   -1.078576   -0.457923
     26          1           0        2.200798   -0.395299   -1.182368
     27          1           0        3.272754   -0.495558    0.222101
     28          1           0        3.304817   -1.748755   -1.016414
     29          6           0        0.772833   -1.095181    1.301295
     30          1           0        0.183489   -1.797667    1.897435
     31          1           0        1.466430   -0.615779    1.998342
 ---------------------------------------------------------------------

 SCF Done:  E(RM06) =  -613.581296899     A.U. after    9 cycles

      1  C    Isotropic =    -1.5435   Anisotropy =   134.8749

      2  C    Isotropic =   125.5884   Anisotropy =    32.1003

      3  H    Isotropic =    27.9314   Anisotropy =     4.1778

      4  C    Isotropic =   156.0969   Anisotropy =    30.5327

      5  H    Isotropic =    30.8389   Anisotropy =     9.9387

      6  H    Isotropic =    31.0605   Anisotropy =     8.0011

      7  H    Isotropic =    30.5271   Anisotropy =     4.6544

      8  O    Isotropic =   -94.1650   Anisotropy =   681.3768

      9  N    Isotropic =   111.6370   Anisotropy =   137.2006

     10  H    Isotropic =    26.0675   Anisotropy =     9.0968

     11  N    Isotropic =   140.0624   Anisotropy =   114.6738

     12  H    Isotropic =    26.9908   Anisotropy =     6.4349

     13  C    Isotropic =   149.8061   Anisotropy =    38.7049

     14  H    Isotropic =    29.3087   Anisotropy =     7.8325

     15  H    Isotropic =    28.7997   Anisotropy =     9.3915

     16  H    Isotropic =    29.7431   Anisotropy =     9.1326

     17  C    Isotropic =     3.0236   Anisotropy =   131.4492

     18  C    Isotropic =   155.9091   Anisotropy =    41.0599

     19  H    Isotropic =    30.6335   Anisotropy =     5.2184

     20  H    Isotropic =    30.0338   Anisotropy =     7.3675

     21  H    Isotropic =    29.8280   Anisotropy =     6.6144

     22  O    Isotropic =   -99.6523   Anisotropy =   665.9976

     23  C    Isotropic =   150.2954   Anisotropy =    10.3975

     24  H    Isotropic =    30.2071   Anisotropy =     8.6777

     25  C    Isotropic =   158.4837   Anisotropy =    30.8101

     26  H    Isotropic =    30.3996   Anisotropy =     6.8799

     27  H    Isotropic =    31.2863   Anisotropy =     7.5510

     28  H    Isotropic =    31.1841   Anisotropy =     9.8270

     29  C    Isotropic =   138.9769   Anisotropy =     9.4394

     30  H    Isotropic =    30.2718   Anisotropy =     6.7026

     31  H    Isotropic =    30.0924   Anisotropy =     6.1811

 The electronic state is 1-A.
 Alpha  occ. eigenvalues --  -19.17316 -19.16350 -14.42007 -14.41288 -10.33485
 Alpha  occ. eigenvalues --  -10.33130 -10.29216 -10.27153 -10.25846 -10.25600
 Alpha  occ. eigenvalues --  -10.23654 -10.23603 -10.22859  -1.05435  -1.03948
 Alpha  occ. eigenvalues --   -0.94402  -0.94077  -0.83808  -0.78505  -0.74208
 Alpha  occ. eigenvalues --   -0.72159  -0.70418  -0.66650  -0.60793  -0.59576
 Alpha  occ. eigenvalues --   -0.57908  -0.54789  -0.50518  -0.49379  -0.47913
 Alpha  occ. eigenvalues --   -0.47227  -0.46664  -0.45410  -0.45281  -0.44593
 Alpha  occ. eigenvalues --   -0.42429  -0.41550  -0.40925  -0.40558  -0.40319
 Alpha  occ. eigenvalues --   -0.39570  -0.38305  -0.38190  -0.36437  -0.35551
 Alpha  occ. eigenvalues --   -0.34826  -0.32797  -0.28083  -0.27633  -0.26171
 Alpha  occ. eigenvalues --   -0.25847
 Alpha virt. eigenvalues --    0.00848   0.02531   0.02711   0.03725   0.04553
 Alpha virt. eigenvalues --    0.05209   0.06963   0.07260   0.08202   0.08596
 Alpha virt. eigenvalues --    0.09764   0.10410   0.11272   0.11553   0.11907

 Mulliken charges:
               1
     1  C    0.266168
     2  C   -0.174257
     3  H    0.230021
     4  C   -0.483688
     5  H    0.148437
     6  H    0.145685
     7  H    0.162684
     8  O   -0.383917
     9  N   -0.200574
    10  H    0.181900
    11  N   -0.111556
    12  H    0.124495
    13  C   -0.193200
    14  H    0.118200
    15  H    0.130648
    16  H    0.089807
    17  C    0.304550
    18  C   -0.319877
    19  H    0.093227
    20  H    0.114272
    21  H    0.120981
    22  O   -0.407668
    23  C   -0.102437
    24  H    0.164888
    25  C   -0.480699
    26  H    0.173265
    27  H    0.151012
    28  H    0.150699
    29  C   -0.405630
    30  H    0.200045
    31  H    0.192522
 Sum of Mulliken charges =   0.00000

 Dipole moment (field-independent basis, Debye):
    X=              2.7944    Y=             -2.8653    Z=              2.3680  Tot=              4.6504
 Quadrupole moment (field-independent basis, Debye-Ang):
   XX=            -76.9650   YY=            -77.4417   ZZ=            -81.3386
   XY=             12.1334   XZ=              4.7967   YZ=              2.6323

 Normal termination of Gaussian 09 at Wed Jun 18 13:23:13 2014.
