 Gaussian 09, Revision D.01,
 Gaussian 09:  EM64L-G09RevD.01 24-Apr-2013

 ----------------------------------------------------------------------
 #p nmr=(giao,mixed,spinspin) m06/cc-pvtz scf=tight integral=(grid=ultr
 afine)
 ----------------------------------------------------------------------

 ------------------
 NMR spin-spin scan
 ------------------
 Symbolic Z-matrix:
 Charge =  0 Multiplicity = 1

 SCF Done:  E(RM06) =  -613.616249847     A.U. after   16 cycles
 Normal termination of Gaussian 09 at Wed Jun 18 11:52:03 2014.

 ----------------------------------------------------------------------
 #P Geom=AllCheck Guess=TCheck SCRF=Check GenChk RM06/ChkBas NMR=ReadFC
  IOp(3/6=22)
 ----------------------------------------------------------------------

 Structure from the checkpoint file:  "/home/ztw1e12/leucine_scan/leucine_chi2_scan/Gau-19168.chk"
 ------------------
 NMR spin-spin scan
 ------------------
 Charge =  0 Multiplicity = 1

                         Standard orientation:
 ---------------------------------------------------------------------
 Center     Atomic      Atomic             Coordinates (Angstroms)
 Number     Number       Type             X           Y           Z
 ---------------------------------------------------------------------
      1          6           0       -0.225098    1.080083    0.057513
      2          6           0        0.286801   -0.112411   -0.748119
      3          1           0        0.629170    0.312276   -1.696957
      4          6           0       -1.384357   -1.356208    1.440458
      5          1           0       -2.003190   -1.952285    2.114174
      6          1           0       -0.347573   -1.505559    1.744741
      7          1           0       -1.643337   -0.309596    1.620390
      8          8           0        0.304142    1.457526    1.097105
      9          7           0        1.440773   -0.712320   -0.123760
     10          1           0        1.318778   -1.556338    0.413756
     11          7           0       -1.273242    1.714301   -0.484836
     12          1           0       -1.731577    1.297496   -1.279329
     13          6           0       -1.968820    2.758945    0.231301
     14          1           0       -2.381940    2.388559    1.172802
     15          1           0       -1.299404    3.588737    0.455639
     16          1           0       -2.782148    3.128196   -0.386296
     17          6           0        2.657731   -0.142880   -0.162947
     18          6           0        3.746945   -0.858853    0.566105
     19          1           0        3.421387   -1.793650    1.017254
     20          1           0        4.564230   -1.056257   -0.126970
     21          1           0        4.132914   -0.201715    1.345557
     22          8           0        2.873287    0.904435   -0.771517
     23          6           0       -1.667757   -1.773874    0.006058
     24          1           0       -1.513560   -2.856136   -0.038878
     25          6           0       -3.132286   -1.510558   -0.304891
     26          1           0       -3.341919   -0.436281   -0.268762
     27          1           0       -3.403617   -1.869149   -1.299627
     28          1           0       -3.785005   -2.001550    0.420040
     29          6           0       -0.773240   -1.155282   -1.097618
     30          1           0       -0.243287   -1.951882   -1.623521
     31          1           0       -1.421587   -0.708190   -1.855706
 ---------------------------------------------------------------------

 SCF Done:  E(RM06) =  -613.572595414     A.U. after   10 cycles

      1  C    Isotropic =    -0.5468   Anisotropy =   130.9907

      2  C    Isotropic =   127.3220   Anisotropy =    34.3386

      3  H    Isotropic =    27.5702   Anisotropy =     4.5646

      4  C    Isotropic =   156.7956   Anisotropy =    21.9407

      5  H    Isotropic =    31.1265   Anisotropy =     9.6193

      6  H    Isotropic =    30.9428   Anisotropy =     7.1169

      7  H    Isotropic =    31.0802   Anisotropy =     5.8716

      8  O    Isotropic =  -110.4174   Anisotropy =   697.3425

      9  N    Isotropic =   115.0074   Anisotropy =   133.7173

     10  H    Isotropic =    26.5164   Anisotropy =     8.4366

     11  N    Isotropic =   144.0794   Anisotropy =   106.9141

     12  H    Isotropic =    26.9441   Anisotropy =     6.0341

     13  C    Isotropic =   149.9165   Anisotropy =    38.0433

     14  H    Isotropic =    29.2415   Anisotropy =     8.3463

     15  H    Isotropic =    28.7798   Anisotropy =     9.6012

     16  H    Isotropic =    29.6953   Anisotropy =     8.9134

     17  C    Isotropic =     3.2898   Anisotropy =   130.7735

     18  C    Isotropic =   155.5779   Anisotropy =    41.4528

     19  H    Isotropic =    30.6495   Anisotropy =     5.3911

     20  H    Isotropic =    29.9955   Anisotropy =     7.3213

     21  H    Isotropic =    29.7023   Anisotropy =     6.5667

     22  O    Isotropic =   -99.1514   Anisotropy =   668.2610

     23  C    Isotropic =   154.9426   Anisotropy =    16.6881

     24  H    Isotropic =    30.1784   Anisotropy =     8.3864

     25  C    Isotropic =   148.6245   Anisotropy =    39.7838

     26  H    Isotropic =    31.0839   Anisotropy =     4.9170

     27  H    Isotropic =    30.8141   Anisotropy =     9.1697

     28  H    Isotropic =    31.0091   Anisotropy =    10.1900

     29  C    Isotropic =   142.0608   Anisotropy =    26.5528

     30  H    Isotropic =    29.8579   Anisotropy =     6.5177

     31  H    Isotropic =    30.4184   Anisotropy =     4.2677

 The electronic state is 1-A.
 Alpha  occ. eigenvalues --  -19.17348 -19.16152 -14.42058 -14.41371 -10.33532
 Alpha  occ. eigenvalues --  -10.33074 -10.29248 -10.27340 -10.26092 -10.26022
 Alpha  occ. eigenvalues --  -10.24091 -10.23539 -10.23538  -1.05447  -1.03826
 Alpha  occ. eigenvalues --   -0.94514  -0.94150  -0.84046  -0.78702  -0.74219
 Alpha  occ. eigenvalues --   -0.72194  -0.70737  -0.66767  -0.60656  -0.59837
 Alpha  occ. eigenvalues --   -0.58527  -0.55130  -0.50606  -0.49278  -0.48588
 Alpha  occ. eigenvalues --   -0.47377  -0.46358  -0.45321  -0.45111  -0.44880
 Alpha  occ. eigenvalues --   -0.42730  -0.41638  -0.41445  -0.40628  -0.40255
 Alpha  occ. eigenvalues --   -0.39932  -0.38687  -0.38085  -0.36525  -0.35563
 Alpha  occ. eigenvalues --   -0.34923  -0.33380  -0.28205  -0.27713  -0.26167
 Alpha  occ. eigenvalues --   -0.25540
 Alpha virt. eigenvalues --    0.00928   0.02264   0.02529   0.03766   0.04136
 Alpha virt. eigenvalues --    0.04689   0.06695   0.07081   0.07658   0.07698
 Alpha virt. eigenvalues --    0.09220   0.09945   0.10620   0.11252   0.11919

 Mulliken charges:
               1
     1  C    0.265757
     2  C   -0.113062
     3  H    0.227224
     4  C   -0.480915
     5  H    0.151035
     6  H    0.159200
     7  H    0.175483
     8  O   -0.378294
     9  N   -0.195248
    10  H    0.158398
    11  N   -0.143566
    12  H    0.143174
    13  C   -0.215437
    14  H    0.122981
    15  H    0.135213
    16  H    0.095873
    17  C    0.304495
    18  C   -0.319820
    19  H    0.091255
    20  H    0.114492
    21  H    0.122400
    22  O   -0.406035
    23  C   -0.090664
    24  H    0.167136
    25  C   -0.448595
    26  H    0.140314
    27  H    0.140555
    28  H    0.143557
    29  C   -0.453364
    30  H    0.190458
    31  H    0.196001
 Sum of Mulliken charges =   0.00000

 Dipole moment (field-independent basis, Debye):
    X=             -4.0504    Y=             -3.5678    Z=             -0.9422  Tot=              5.4793
 Quadrupole moment (field-independent basis, Debye-Ang):
   XX=            -79.3719   YY=            -78.0500   ZZ=            -81.7222
   XY=            -12.1681   XZ=              5.9624   YZ=             -2.4619

 Normal termination of Gaussian 09 at Wed Jun 18 15:51:10 2014.
