 Gaussian 09, Revision D.01,
 Gaussian 09:  EM64L-G09RevD.01 24-Apr-2013

 ----------------------------------------------------------------------
 #p nmr=(giao,mixed,spinspin) m06/cc-pvtz scf=tight integral=(grid=ultr
 afine)
 ----------------------------------------------------------------------

 ------------------
 NMR spin-spin scan
 ------------------
 Symbolic Z-matrix:
 Charge =  0 Multiplicity = 1

 SCF Done:  E(RM06) =  -613.622784566     A.U. after   16 cycles
 Normal termination of Gaussian 09 at Wed Jun 18 09:21:03 2014.

 ----------------------------------------------------------------------
 #P Geom=AllCheck Guess=TCheck SCRF=Check GenChk RM06/ChkBas NMR=ReadFC
  IOp(3/6=22)
 ----------------------------------------------------------------------

 Structure from the checkpoint file:  "/home/ztw1e12/leucine_scan/leucine_chi2_scan/Gau-26290.chk"
 ------------------
 NMR spin-spin scan
 ------------------
 Charge =  0 Multiplicity = 1

                         Standard orientation:
 ---------------------------------------------------------------------
 Center     Atomic      Atomic             Coordinates (Angstroms)
 Number     Number       Type             X           Y           Z
 ---------------------------------------------------------------------
      1          6           0       -0.462291   -1.061332   -0.095163
      2          6           0        0.169532   -0.020613    0.823690
      3          1           0        0.466551   -0.561929    1.727592
      4          6           0       -0.689932    2.947956   -0.460848
      5          1           0       -1.312121    3.678881   -0.981089
      6          1           0       -0.033461    3.491732    0.222081
      7          1           0       -0.069592    2.466337   -1.224283
      8          8           0       -0.169241   -1.168328   -1.282035
      9          7           0        1.373663    0.519096    0.234971
     10          1           0        1.371085    1.463300   -0.116105
     11          7           0       -1.351581   -1.863618    0.499523
     12          1           0       -1.578094   -1.702819    1.468327
     13          6           0       -2.151653   -2.795207   -0.261114
     14          1           0       -2.704656   -2.284689   -1.052266
     15          1           0       -1.530472   -3.562975   -0.722830
     16          1           0       -2.860069   -3.277005    0.405937
     17          6           0        2.475255   -0.231821    0.068278
     18          6           0        3.641821    0.430651   -0.587052
     19          1           0        3.467937    1.479169   -0.819305
     20          1           0        4.508243    0.343989    0.068065
     21          1           0        3.875031   -0.105482   -1.507156
     22          8           0        2.527052   -1.402780    0.442903
     23          6           0       -1.554292    1.937727    0.275285
     24          1           0       -2.230515    2.523818    0.909757
     25          6           0       -2.431258    1.162324   -0.689070
     26          1           0       -1.841892    0.627743   -1.436249
     27          1           0       -3.064389    0.438455   -0.170698
     28          1           0       -3.086412    1.849566   -1.228327
     29          6           0       -0.778496    1.088467    1.285882
     30          1           0       -0.194966    1.754449    1.927500
     31          1           0       -1.511396    0.609079    1.941333
 ---------------------------------------------------------------------

 SCF Done:  E(RM06) =  -613.579149786     A.U. after    9 cycles

      1  C    Isotropic =    -1.3183   Anisotropy =   133.5024

      2  C    Isotropic =   125.3810   Anisotropy =    33.4902

      3  H    Isotropic =    27.8451   Anisotropy =     4.1529

      4  C    Isotropic =   153.6165   Anisotropy =    34.5539

      5  H    Isotropic =    30.7412   Anisotropy =     9.9376

      6  H    Isotropic =    30.9106   Anisotropy =     8.0566

      7  H    Isotropic =    30.7715   Anisotropy =     4.9215

      8  O    Isotropic =  -100.1020   Anisotropy =   686.6435

      9  N    Isotropic =   113.6792   Anisotropy =   136.8190

     10  H    Isotropic =    26.0836   Anisotropy =     9.3600

     11  N    Isotropic =   141.3000   Anisotropy =   112.8477

     12  H    Isotropic =    27.0093   Anisotropy =     6.6130

     13  C    Isotropic =   149.8173   Anisotropy =    38.6406

     14  H    Isotropic =    29.1842   Anisotropy =     7.7068

     15  H    Isotropic =    28.9138   Anisotropy =     9.7297

     16  H    Isotropic =    29.7482   Anisotropy =     9.0307

     17  C    Isotropic =     2.9973   Anisotropy =   131.5882

     18  C    Isotropic =   155.8470   Anisotropy =    41.1694

     19  H    Isotropic =    30.6305   Anisotropy =     5.1759

     20  H    Isotropic =    30.0364   Anisotropy =     7.3932

     21  H    Isotropic =    29.7719   Anisotropy =     6.5582

     22  O    Isotropic =  -100.3198   Anisotropy =   668.9810

     23  C    Isotropic =   150.3252   Anisotropy =    11.1341

     24  H    Isotropic =    30.1855   Anisotropy =     8.5231

     25  C    Isotropic =   159.6952   Anisotropy =    28.9302

     26  H    Isotropic =    30.3755   Anisotropy =     6.4833

     27  H    Isotropic =    31.1642   Anisotropy =     7.1365

     28  H    Isotropic =    31.1965   Anisotropy =     9.8469

     29  C    Isotropic =   138.8619   Anisotropy =    10.6651

     30  H    Isotropic =    30.2471   Anisotropy =     6.3700

     31  H    Isotropic =    30.0322   Anisotropy =     6.1966

 The electronic state is 1-A.
 Alpha  occ. eigenvalues --  -19.17235 -19.16245 -14.41978 -14.41230 -10.33445
 Alpha  occ. eigenvalues --  -10.33046 -10.29208 -10.27161 -10.25910 -10.25721
 Alpha  occ. eigenvalues --  -10.23986 -10.23532 -10.22882  -1.05381  -1.03858
 Alpha  occ. eigenvalues --   -0.94371  -0.94029  -0.83890  -0.78544  -0.74182
 Alpha  occ. eigenvalues --   -0.72159  -0.70560  -0.66717  -0.60773  -0.59608
 Alpha  occ. eigenvalues --   -0.58015  -0.54734  -0.50471  -0.49356  -0.47739
 Alpha  occ. eigenvalues --   -0.47264  -0.46973  -0.45422  -0.45234  -0.44592
 Alpha  occ. eigenvalues --   -0.42611  -0.41728  -0.40868  -0.40549  -0.40253
 Alpha  occ. eigenvalues --   -0.39554  -0.38480  -0.38115  -0.36419  -0.35706
 Alpha  occ. eigenvalues --   -0.34804  -0.32856  -0.28094  -0.27473  -0.26156
 Alpha  occ. eigenvalues --   -0.25725
 Alpha virt. eigenvalues --    0.00797   0.02518   0.02766   0.03696   0.04469
 Alpha virt. eigenvalues --    0.05202   0.06837   0.07144   0.08346   0.08741
 Alpha virt. eigenvalues --    0.09429   0.10212   0.10429   0.11552   0.11938

 Mulliken charges:
               1
     1  C    0.288348
     2  C   -0.182985
     3  H    0.229434
     4  C   -0.483641
     5  H    0.152201
     6  H    0.152495
     7  H    0.152546
     8  O   -0.382358
     9  N   -0.201065
    10  H    0.184989
    11  N   -0.128674
    12  H    0.128237
    13  C   -0.194738
    14  H    0.119273
    15  H    0.128897
    16  H    0.090192
    17  C    0.306059
    18  C   -0.321070
    19  H    0.092459
    20  H    0.114138
    21  H    0.121795
    22  O   -0.406913
    23  C   -0.106959
    24  H    0.164163
    25  C   -0.494461
    26  H    0.183440
    27  H    0.154057
    28  H    0.151176
    29  C   -0.403645
    30  H    0.203996
    31  H    0.188616
 Sum of Mulliken charges =   0.00000

 Dipole moment (field-independent basis, Debye):
    X=             -3.0229    Y=              3.1752    Z=              2.2049  Tot=              4.9073
 Quadrupole moment (field-independent basis, Debye-Ang):
   XX=            -76.3717   YY=            -78.4573   ZZ=            -81.2361
   XY=             12.0535   XZ=             -5.2777   YZ=             -2.6628

 Normal termination of Gaussian 09 at Wed Jun 18 13:20:33 2014.
