 Gaussian 09, Revision D.01,
 Gaussian 09:  EM64L-G09RevD.01 24-Apr-2013

 ----------------------------------------------------------------------
 #p nmr=(giao,mixed,spinspin) m06/cc-pvtz scf=tight integral=(grid=ultr
 afine)
 ----------------------------------------------------------------------

 ------------------
 NMR spin-spin scan
 ------------------
 Symbolic Z-matrix:
 Charge =  0 Multiplicity = 1

 SCF Done:  E(RM06) =  -613.625706500     A.U. after   16 cycles
 Normal termination of Gaussian 09 at Tue Jun 17 22:33:31 2014.

 ----------------------------------------------------------------------
 #P Geom=AllCheck Guess=TCheck SCRF=Check GenChk RM06/ChkBas NMR=ReadFC
  IOp(3/6=22)
 ----------------------------------------------------------------------

 Structure from the checkpoint file:  "/home/ztw1e12/leucine_scan/leucine_chi2_scan/Gau-8483.chk"
 ------------------
 NMR spin-spin scan
 ------------------
 Charge =  0 Multiplicity = 1

                         Standard orientation:
 ---------------------------------------------------------------------
 Center     Atomic      Atomic             Coordinates (Angstroms)
 Number     Number       Type             X           Y           Z
 ---------------------------------------------------------------------
      1          6           0        0.131264    1.224566    0.155718
      2          6           0        0.122932    0.003929   -0.760499
      3          1           0        0.540940    0.334719   -1.715920
      4          6           0       -3.414456   -1.575930   -0.404835
      5          1           0       -4.175683   -1.725918    0.363082
      6          1           0       -3.896369   -1.112632   -1.269214
      7          1           0       -3.051722   -2.560227   -0.714113
      8          8           0        0.433988    1.171418    1.344138
      9          7           0        0.979148   -1.042772   -0.261164
     10          1           0        0.569734   -1.864538    0.153828
     11          7           0       -0.237205    2.363460   -0.440470
     12          1           0       -0.473287    2.344954   -1.419820
     13          6           0       -0.345099    3.605269    0.288691
     14          1           0       -1.098475    3.540441    1.074870
     15          1           0        0.606131    3.871248    0.750221
     16          1           0       -0.628625    4.394378   -0.400837
     17          6           0        2.313031   -0.885914   -0.210723
     18          6           0        3.095532   -2.015687    0.372456
     19          1           0        2.477709   -2.868994    0.644286
     20          1           0        3.851114   -2.330273   -0.346598
     21          1           0        3.617483   -1.655187    1.258968
     22          8           0        2.862500    0.132336   -0.629867
     23          6           0       -2.258308   -0.740956    0.118557
     24          1           0       -2.637963    0.221368    0.481991
     25          6           0       -1.644562   -1.481254    1.296310
     26          1           0       -1.266387   -2.460408    0.982478
     27          1           0       -0.834279   -0.932070    1.774301
     28          1           0       -2.407141   -1.667977    2.055306
     29          6           0       -1.299808   -0.475120   -1.044474
     30          1           0       -1.195723   -1.401984   -1.622092
     31          1           0       -1.766118    0.244817   -1.720667
 ---------------------------------------------------------------------

 SCF Done:  E(RM06) =  -613.582051343     A.U. after    9 cycles

      1  C    Isotropic =    -0.0036   Anisotropy =   131.5303

      2  C    Isotropic =   124.6783   Anisotropy =    31.2322

      3  H    Isotropic =    27.8920   Anisotropy =     4.2569

      4  C    Isotropic =   149.9487   Anisotropy =    42.0961

      5  H    Isotropic =    30.8891   Anisotropy =    10.0497

      6  H    Isotropic =    30.9331   Anisotropy =     9.6845

      7  H    Isotropic =    31.4253   Anisotropy =     6.9091

      8  O    Isotropic =   -89.0949   Anisotropy =   671.5928

      9  N    Isotropic =   111.6946   Anisotropy =   137.3957

     10  H    Isotropic =    26.1064   Anisotropy =     9.1084

     11  N    Isotropic =   143.3557   Anisotropy =   116.9267

     12  H    Isotropic =    27.0677   Anisotropy =     7.0649

     13  C    Isotropic =   150.1503   Anisotropy =    38.9847

     14  H    Isotropic =    29.1849   Anisotropy =     8.8853

     15  H    Isotropic =    28.8908   Anisotropy =     9.2667

     16  H    Isotropic =    29.7583   Anisotropy =     9.0239

     17  C    Isotropic =     2.8995   Anisotropy =   131.6089

     18  C    Isotropic =   155.8994   Anisotropy =    41.0699

     19  H    Isotropic =    30.6322   Anisotropy =     5.2165

     20  H    Isotropic =    30.0439   Anisotropy =     7.4473

     21  H    Isotropic =    29.8140   Anisotropy =     6.5557

     22  O    Isotropic =  -100.2829   Anisotropy =   664.5181

     23  C    Isotropic =   152.4559   Anisotropy =     9.7167

     24  H    Isotropic =    30.4820   Anisotropy =     6.2245

     25  C    Isotropic =   155.1584   Anisotropy =    27.1204

     26  H    Isotropic =    31.8006   Anisotropy =     5.9640

     27  H    Isotropic =    29.7337   Anisotropy =     7.2485

     28  H    Isotropic =    30.9899   Anisotropy =     9.3059

     29  C    Isotropic =   137.6706   Anisotropy =    27.0768

     30  H    Isotropic =    30.8167   Anisotropy =     5.1569

     31  H    Isotropic =    30.0268   Anisotropy =     6.0292

 The electronic state is 1-A.
 Alpha  occ. eigenvalues --  -19.17391 -19.16478 -14.41984 -14.41392 -10.33483
 Alpha  occ. eigenvalues --  -10.33251 -10.29223 -10.27114 -10.25770 -10.25510
 Alpha  occ. eigenvalues --  -10.23681 -10.23515 -10.23010  -1.05455  -1.04085
 Alpha  occ. eigenvalues --   -0.94405  -0.94182  -0.83967  -0.78651  -0.74330
 Alpha  occ. eigenvalues --   -0.72034  -0.70185  -0.66178  -0.60984  -0.59622
 Alpha  occ. eigenvalues --   -0.58278  -0.54743  -0.50707  -0.49592  -0.48766
 Alpha  occ. eigenvalues --   -0.46953  -0.46506  -0.45309  -0.44963  -0.44219
 Alpha  occ. eigenvalues --   -0.42522  -0.41487  -0.40752  -0.40421  -0.40043
 Alpha  occ. eigenvalues --   -0.39850  -0.39202  -0.37737  -0.36537  -0.35023
 Alpha  occ. eigenvalues --   -0.34706  -0.33816  -0.28287  -0.27560  -0.26166
 Alpha  occ. eigenvalues --   -0.25913
 Alpha virt. eigenvalues --    0.00993   0.02674   0.02809   0.03804   0.04499
 Alpha virt. eigenvalues --    0.04957   0.06445   0.07279   0.07571   0.08608
 Alpha virt. eigenvalues --    0.09486   0.10819   0.11040   0.11874   0.11994

 Mulliken charges:
               1
     1  C    0.310155
     2  C   -0.168153
     3  H    0.229182
     4  C   -0.424446
     5  H    0.139116
     6  H    0.134278
     7  H    0.145267
     8  O   -0.397184
     9  N   -0.201643
    10  H    0.180667
    11  N   -0.133554
    12  H    0.125908
    13  C   -0.171886
    14  H    0.107711
    15  H    0.122190
    16  H    0.085843
    17  C    0.302086
    18  C   -0.318920
    19  H    0.093667
    20  H    0.114313
    21  H    0.121500
    22  O   -0.407947
    23  C   -0.090896
    24  H    0.175431
    25  C   -0.517753
    26  H    0.145872
    27  H    0.188507
    28  H    0.148483
    29  C   -0.436648
    30  H    0.208931
    31  H    0.189924
 Sum of Mulliken charges =   0.00000

 Dipole moment (field-independent basis, Debye):
    X=             -3.7476    Y=             -1.1022    Z=             -1.9058  Tot=              4.3465
 Quadrupole moment (field-independent basis, Debye-Ang):
   XX=            -86.5923   YY=            -68.0184   ZZ=            -82.2329
   XY=             -8.1619   XZ=              3.2979   YZ=             -4.9631

 Normal termination of Gaussian 09 at Wed Jun 18 02:25:55 2014.
