 Gaussian 16, Revision A.03,
 Gaussian 16:  ES64L-G16RevA.03 25-Dec-2016

 ------------------------------------------
 #p nmr=(giao,spinspin,mixed) ub3lyp/EPR-II
 ------------------------------------------

 -------------------
 Title Card Required
 -------------------
 Symbolic Z-matrix:
 Charge =  0 Multiplicity = 2

 SCF Done:  E(UB3LYP) =  -39.8554788506     A.U. after    9 cycles
 Normal termination of Gaussian 16 at Mon Apr 22 22:20:25 2019.

 ----------------------------------------------------------------------
 #P Geom=AllCheck Guess=TCheck SCRF=Check GenChk UB3LYP/ChkBas NMR=Read
 FC IOp(3/6=22)
 ----------------------------------------------------------------------

 Structure from the checkpoint file:  "g.chk"
 -------------------
 Title Card Required
 -------------------
 Charge =  0 Multiplicity = 2

                         Standard orientation:
 ---------------------------------------------------------------------
 Center     Atomic      Atomic             Coordinates (Angstroms)
 Number     Number       Type             X           Y           Z
 ---------------------------------------------------------------------
      1          6           0        0.000006    0.000000   -0.000006
      2          1           0        1.079351   -0.000002    0.000012
      3          1           0       -0.539696   -0.934641    0.000012
      4          1           0       -0.539692    0.934643    0.000012
 ---------------------------------------------------------------------

 SCF Done:  E(UB3LYP) =  -39.8505707761     A.U. after    8 cycles

      1  C    Isotropic =    99.5528   Anisotropy =   127.8313

      2  H    Isotropic =    27.4912   Anisotropy =     0.9977

      3  H    Isotropic =    27.4929   Anisotropy =     0.9977

      4  H    Isotropic =    27.4929   Anisotropy =     0.9977

 The electronic state is 2-A.
 Alpha  occ. eigenvalues --  -10.19653  -0.68708  -0.42225  -0.42224  -0.23207
 Alpha virt. eigenvalues --    0.02587   0.19679   0.19680   0.20653   0.26953
 Alpha virt. eigenvalues --    0.26954   0.31002   0.65386   0.84552   0.85981
 Alpha virt. eigenvalues --    0.85983   0.96185   0.96187   1.35296   1.35306

  Beta  occ. eigenvalues --  -10.18261  -0.64742  -0.41207  -0.41206
  Beta virt. eigenvalues --   -0.06914   0.03155   0.19863   0.19864   0.22822
  Beta virt. eigenvalues --    0.27764   0.27765   0.37266   0.68088   0.86169
  Beta virt. eigenvalues --    0.86171   0.86316   0.99875   0.99878   1.35681

 Mulliken charges and spin densities:
               1          2
     1  C   -0.551815   1.108036
     2  H    0.183926  -0.036015
     3  H    0.183944  -0.036011
     4  H    0.183944  -0.036011
 Sum of Mulliken charges =  -0.00000   1.00000

 Dipole moment (field-independent basis, Debye):
    X=             -0.0001    Y=              0.0000    Z=              0.0000  Tot=              0.0001
 Quadrupole moment (field-independent basis, Debye-Ang):
   XX=             -7.0011   YY=             -7.0017   ZZ=             -9.0141
   XY=              0.0000   XZ=             -0.0000   YZ=              0.0000

 Normal termination of Gaussian 16 at Mon Apr 22 22:20:41 2019.
