                         Program Version 4.1.1  - RELEASE  -
|  1> #! UKS B3LYP def2-TZVP def2/JK TightSCF
|  2> ! UKS B3LYP EPR-III Grid7 GridX9 TightSCF
|  3>
|  4> *xyz 0 2
|  5>   C   -0.33397149536848     -0.43136599369745      0.00000000032564
|  6>   H   -0.33326739217975     -1.51071043023817     -0.00000000036557
|  7>   H   -0.33429664635140      0.10833396220140      0.93464173060979
|  8>   H   -0.33429664610037      0.10833396173422     -0.93464173056986
|  9> *
| 10>
| 11> %eprnmr
| 12>   gtensor 1
| 13>    #ori GIAO
| 14>    #Nuclei = 1, 2, 3, 4 {shift}
| 15>    #Nuclei = 1, 2, 3, 4 {sall, aiso, adip}
| 16>     LocMet PM
| 17>     gtensor 1
| 18>     Nuclei = all H {aiso, adip, rho}
| 19>     Nuclei = all C {aiso, adip, rho}
| 20> end
| 21>
| 22>                          ****END OF INPUT****

CARTESIAN COORDINATES (ANGSTROEM)
---------------------------------
  C     -0.333971   -0.431366    0.000000
  H     -0.333267   -1.510710   -0.000000
  H     -0.334297    0.108334    0.934642
  H     -0.334297    0.108334   -0.934642

 Total Charge           Charge          ....    0
 Multiplicity           Mult            ....    2
 Number of Electrons    NEL             ....    9
 Basis Dimension        Dim             ....   73

ORBITAL ENERGIES
----------------
                 SPIN UP ORBITALS
  NO   OCC          E(Eh)            E(eV)
   0   1.0000     -10.183986      -277.1203
   1   1.0000      -0.687603       -18.7106
   2   1.0000      -0.423137       -11.5141
   3   1.0000      -0.423126       -11.5138
   4   1.0000      -0.234652        -6.3852
   5   0.0000       0.001167         0.0318
   6   0.0000       0.036783         1.0009
   7   0.0000       0.036785         1.0010
   8   0.0000       0.047555         1.2940
   9   0.0000       0.091773         2.4973

                 SPIN DOWN ORBITALS
  NO   OCC          E(Eh)            E(eV)
   0   1.0000     -10.169551      -276.7275
   1   1.0000      -0.648113       -17.6360
   2   1.0000      -0.413671       -11.2566
   3   1.0000      -0.413659       -11.2562
   4   0.0000      -0.077268        -2.1026
   5   0.0000       0.004293         0.1168
   6   0.0000       0.036406         0.9907
   7   0.0000       0.036408         0.9907
   8   0.0000       0.060840         1.6556

MULLIKEN ATOMIC CHARGES AND SPIN POPULATIONS
--------------------------------------------
   0 C :   -0.426439    1.102981
   1 H :    0.142146   -0.034328
   2 H :    0.142147   -0.034327
   3 H :    0.142147   -0.034326
Sum of atomic charges         :   -0.0000000

LOEWDIN ATOMIC CHARGES AND SPIN POPULATIONS
-------------------------------------------
   0 C :   -0.149031    0.907108
   1 H :    0.049700    0.030956
   2 H :    0.049666    0.030968
   3 H :    0.049666    0.030968

  Mayer bond orders larger than 0.1
B(  0-C ,  1-H ) :   0.9775 B(  0-C ,  2-H ) :   0.9775 B(  0-C ,  3-H ) :   0.9775

FINAL SINGLE POINT ENERGY       -39.828959970921

DIPOLE MOMENT
-------------
                                X             Y             Z
Electronic contribution:     -0.00003      -0.00001       0.00000
Nuclear contribution   :      0.00004       0.00004      -0.00000
                        -----------------------------------------
Total Dipole Moment    :      0.00002       0.00003       0.00000
                        -----------------------------------------
Magnitude (a.u.)       :      0.00003
Magnitude (Debye)      :      0.00008

Rotational constants in cm-1:     9.572294     9.569956     4.785562
Rotational constants in MHz : 286970.160304 286900.061612 143467.553402

                             ****ORCA TERMINATED NORMALLY****
TOTAL RUN TIME: 0 days 0 hours 0 minutes 22 seconds 364 msec
