                         Program Version 4.0.0 -  RELEASE  -
|  1> ! pal16 B3LYP def2-SVP
|  2>
|  3> *xyz 0 2
|  4>  Cu        0.000000000000      0.000000000000      0.000000000000
|  5>  N        -1.452280156504      1.452280156496      0.000000000000
|  6>  N         1.452280156504     -1.452280156496      0.000000000000
|  7>  N        -1.452280156496     -1.452280156504      0.000000000000
|  8>  N         1.452280156496      1.452280156504      0.000000000000
|  9>  C        -3.453874147000     -0.000000000009      0.000000000000
| 10>  C        -2.808131558003      1.250940541492      0.000000000000
| 11>  C        -1.250940541508      2.808131557997      0.000000000000
| 12>  C        -2.523421685509      3.483364946993      0.000000000000
| 13>  C        -3.483364947007      2.523421685491      0.000000000000
| 14>  C         1.250940541508     -2.808131557997      0.000000000000
| 15>  C         2.523421685509     -3.483364946993      0.000000000000
| 16>  C         3.483364947007     -2.523421685491      0.000000000000
| 17>  C         2.808131558003     -1.250940541492      0.000000000000
| 18>  C        -0.000000000009      3.453874147000      0.000000000000
| 19>  C         0.000000000009     -3.453874147000      0.000000000000
| 20>  C         3.453874147000      0.000000000009      0.000000000000
| 21>  C        -2.808131557997     -1.250940541508      0.000000000000
| 22>  C        -1.250940541492     -2.808131558003      0.000000000000
| 23>  C        -2.523421685491     -3.483364947007      0.000000000000
| 24>  C        -3.483364946993     -2.523421685509      0.000000000000
| 25>  C         2.808131557997      1.250940541508      0.000000000000
| 26>  C         3.483364946993      2.523421685509      0.000000000000
| 27>  C         2.523421685491      3.483364947007      0.000000000000
| 28>  C         1.250940541492      2.808131558003      0.000000000000
| 29>  H        -2.658552774012      4.551635888493      0.000000000000
| 30>  H        -4.551635888507      2.658552773988      0.000000000000
| 31>  H        -4.551635888493     -2.658552774012      0.000000000000
| 32>  H        -2.658552773988     -4.551635888507      0.000000000000
| 33>  H         2.658552774012     -4.551635888493      0.000000000000
| 34>  H         4.551635888507     -2.658552773988      0.000000000000
| 35>  H         4.551635888493      2.658552774012      0.000000000000
| 36>  H         2.658552773988      4.551635888507      0.000000000000
| 37>  H        -4.533874147000     -0.000000000040      0.000000000000
| 38>  H         4.533874147000      0.000000000040      0.000000000000
| 39>  H        -0.000000000040      4.533874147000      0.000000000000
| 40>  H         0.000000000040     -4.533874147000      0.000000000000
| 41> *
| 42>
| 43> %eprnmr
| 44> Gtensor 1
| 45> Nuclei = all H {aiso,adip,fgrad}
| 46> end
| 47>
| 48>                          ****END OF INPUT****

CARTESIAN COORDINATES (ANGSTROEM)
---------------------------------
  Cu     0.000000    0.000000    0.000000
  N     -1.452280    1.452280    0.000000
  N      1.452280   -1.452280    0.000000
  N     -1.452280   -1.452280    0.000000
  N      1.452280    1.452280    0.000000
  C     -3.453874   -0.000000    0.000000
  C     -2.808132    1.250941    0.000000
  C     -1.250941    2.808132    0.000000
  C     -2.523422    3.483365    0.000000
  C     -3.483365    2.523422    0.000000
  C      1.250941   -2.808132    0.000000
  C      2.523422   -3.483365    0.000000
  C      3.483365   -2.523422    0.000000
  C      2.808132   -1.250941    0.000000
  C     -0.000000    3.453874    0.000000
  C      0.000000   -3.453874    0.000000
  C      3.453874    0.000000    0.000000
  C     -2.808132   -1.250941    0.000000
  C     -1.250941   -2.808132    0.000000
  C     -2.523422   -3.483365    0.000000
  C     -3.483365   -2.523422    0.000000
  C      2.808132    1.250941    0.000000
  C      3.483365    2.523422    0.000000
  C      2.523422    3.483365    0.000000
  C      1.250941    2.808132    0.000000
  H     -2.658553    4.551636    0.000000
  H     -4.551636    2.658553    0.000000
  H     -4.551636   -2.658553    0.000000
  H     -2.658553   -4.551636    0.000000
  H      2.658553   -4.551636    0.000000
  H      4.551636   -2.658553    0.000000
  H      4.551636    2.658553    0.000000
  H      2.658553    4.551636    0.000000
  H     -4.533874   -0.000000    0.000000
  H      4.533874    0.000000    0.000000
  H     -0.000000    4.533874    0.000000
  H      0.000000   -4.533874    0.000000

 Total Charge           Charge          ....    0
 Multiplicity           Mult            ....    2
 Number of Electrons    NEL             ....  189
 Basis Dimension        Dim             ....  427

ORBITAL ENERGIES
----------------
                 SPIN UP ORBITALS
  NO   OCC          E(Eh)            E(eV)
   0   1.0000    -323.133219     -8792.9019
   1   1.0000     -38.950552     -1059.8984
   2   1.0000     -34.173771      -929.9156
   3   1.0000     -34.173771      -929.9156
   4   1.0000     -34.151068      -929.2978
   5   1.0000     -14.329448      -389.9241
   6   1.0000     -14.329448      -389.9241
   7   1.0000     -14.329427      -389.9235
   8   1.0000     -14.329408      -389.9230
   9   1.0000     -10.220209      -278.1060
  10   1.0000     -10.220174      -278.1051
  11   1.0000     -10.220174      -278.1051
  12   1.0000     -10.220117      -278.1035
  13   1.0000     -10.220103      -278.1031
  14   1.0000     -10.220082      -278.1026
  15   1.0000     -10.220076      -278.1024
  16   1.0000     -10.220076      -278.1024
  17   1.0000     -10.198107      -277.5046
  18   1.0000     -10.198072      -277.5037
  19   1.0000     -10.198072      -277.5037
  20   1.0000     -10.198042      -277.5028
  21   1.0000     -10.185945      -277.1736
  22   1.0000     -10.185944      -277.1736
  23   1.0000     -10.185944      -277.1736
  24   1.0000     -10.185943      -277.1736
  25   1.0000     -10.185388      -277.1585
  26   1.0000     -10.185385      -277.1584
  27   1.0000     -10.185385      -277.1584
  28   1.0000     -10.185384      -277.1584
  29   1.0000      -4.399134      -119.7065
  30   1.0000      -2.906235       -79.0827
  31   1.0000      -2.906235       -79.0827
  32   1.0000      -2.861101       -77.8545
  33   1.0000      -0.957443       -26.0533
  34   1.0000      -0.949301       -25.8318
  35   1.0000      -0.949301       -25.8318
  36   1.0000      -0.940931       -25.6040
  37   1.0000      -0.804244       -21.8846
  38   1.0000      -0.779039       -21.1987
  39   1.0000      -0.779039       -21.1987
  40   1.0000      -0.764874       -20.8133
  41   1.0000      -0.758992       -20.6532
  42   1.0000      -0.758992       -20.6532
  43   1.0000      -0.755967       -20.5709
  44   1.0000      -0.731050       -19.8929
  45   1.0000      -0.707957       -19.2645
  46   1.0000      -0.648137       -17.6367
  47   1.0000      -0.648137       -17.6367
  48   1.0000      -0.591336       -16.0911
  49   1.0000      -0.571191       -15.5429
  50   1.0000      -0.569724       -15.5030
  51   1.0000      -0.569173       -15.4880
  52   1.0000      -0.569173       -15.4880
  53   1.0000      -0.545975       -14.8567
  54   1.0000      -0.542062       -14.7502
  55   1.0000      -0.522955       -14.2303
  56   1.0000      -0.522955       -14.2303
  57   1.0000      -0.518364       -14.1054
  58   1.0000      -0.495133       -13.4732
  59   1.0000      -0.495133       -13.4732
  60   1.0000      -0.449322       -12.2267
  61   1.0000      -0.437871       -11.9151
  62   1.0000      -0.433513       -11.7965
  63   1.0000      -0.427707       -11.6385
  64   1.0000      -0.424735       -11.5576
  65   1.0000      -0.424735       -11.5576
  66   1.0000      -0.424471       -11.5505
  67   1.0000      -0.416965       -11.3462
  68   1.0000      -0.416965       -11.3462
  69   1.0000      -0.410833       -11.1793
  70   1.0000      -0.396296       -10.7838
  71   1.0000      -0.396296       -10.7838
  72   1.0000      -0.393781       -10.7153
  73   1.0000      -0.392974       -10.6934
  74   1.0000      -0.389316       -10.5938
  75   1.0000      -0.377930       -10.2840
  76   1.0000      -0.376860       -10.2549
  77   1.0000      -0.376860       -10.2549
  78   1.0000      -0.368208       -10.0194
  79   1.0000      -0.355560        -9.6753
  80   1.0000      -0.353749        -9.6260
  81   1.0000      -0.353749        -9.6260
  82   1.0000      -0.330539        -8.9944
  83   1.0000      -0.324474        -8.8294
  84   1.0000      -0.324474        -8.8294
  85   1.0000      -0.323169        -8.7939
  86   1.0000      -0.281873        -7.6702
  87   1.0000      -0.281873        -7.6702
  88   1.0000      -0.263146        -7.1606
  89   1.0000      -0.250402        -6.8138
  90   1.0000      -0.248675        -6.7668
  91   1.0000      -0.248675        -6.7668
  92   1.0000      -0.234972        -6.3939
  93   1.0000      -0.198841        -5.4107
  94   1.0000      -0.197224        -5.3667
  95   0.0000      -0.086417        -2.3515
  96   0.0000      -0.086417        -2.3515
  97   0.0000      -0.028143        -0.7658
  98   0.0000       0.035379         0.9627
  99   0.0000       0.043197         1.1754

                 SPIN DOWN ORBITALS
  NO   OCC          E(Eh)            E(eV)
   0   1.0000    -323.133070     -8792.8979
   1   1.0000     -38.931533     -1059.3809
   2   1.0000     -34.152969      -929.3495
   3   1.0000     -34.152969      -929.3495
   4   1.0000     -34.146029      -929.1607
   5   1.0000     -14.326351      -389.8398
   6   1.0000     -14.326351      -389.8398
   7   1.0000     -14.326332      -389.8393
   8   1.0000     -14.326310      -389.8387
   9   1.0000     -10.220194      -278.1056
  10   1.0000     -10.220159      -278.1047
  11   1.0000     -10.220159      -278.1047
  12   1.0000     -10.220102      -278.1031
  13   1.0000     -10.220088      -278.1027
  14   1.0000     -10.220067      -278.1022
  15   1.0000     -10.220062      -278.1020
  16   1.0000     -10.220062      -278.1020
  17   1.0000     -10.198068      -277.5035
  18   1.0000     -10.198033      -277.5026
  19   1.0000     -10.198033      -277.5026
  20   1.0000     -10.198003      -277.5018
  21   1.0000     -10.185850      -277.1711
  22   1.0000     -10.185849      -277.1710
  23   1.0000     -10.185849      -277.1710
  24   1.0000     -10.185849      -277.1710
  25   1.0000     -10.185294      -277.1559
  26   1.0000     -10.185290      -277.1558
  27   1.0000     -10.185290      -277.1558
  28   1.0000     -10.185290      -277.1558
  29   1.0000      -4.359637      -118.6318
  30   1.0000      -2.850377       -77.5627
  31   1.0000      -2.850377       -77.5627
  32   1.0000      -2.848180       -77.5029
  33   1.0000      -0.955022       -25.9875
  34   1.0000      -0.946861       -25.7654
  35   1.0000      -0.946861       -25.7654
  36   1.0000      -0.938365       -25.5342
  37   1.0000      -0.804012       -21.8783
  38   1.0000      -0.778772       -21.1915
  39   1.0000      -0.778772       -21.1915
  40   1.0000      -0.763139       -20.7661
  41   1.0000      -0.757145       -20.6030
  42   1.0000      -0.757145       -20.6030
  43   1.0000      -0.753910       -20.5149
  44   1.0000      -0.730641       -19.8818
  45   1.0000      -0.707561       -19.2537
  46   1.0000      -0.647776       -17.6269
  47   1.0000      -0.647776       -17.6269
  48   1.0000      -0.590902       -16.0793
  49   1.0000      -0.570334       -15.5196
  50   1.0000      -0.568770       -15.4770
  51   1.0000      -0.568237       -15.4625
  52   1.0000      -0.568237       -15.4625
  53   1.0000      -0.545050       -14.8316
  54   1.0000      -0.538704       -14.6589
  55   1.0000      -0.520219       -14.1559
  56   1.0000      -0.520219       -14.1559
  57   1.0000      -0.510897       -13.9022
  58   1.0000      -0.494634       -13.4597
  59   1.0000      -0.494634       -13.4597
  60   1.0000      -0.448846       -12.2137
  61   1.0000      -0.436856       -11.8875
  62   1.0000      -0.426757       -11.6127
  63   1.0000      -0.424452       -11.5499
  64   1.0000      -0.424452       -11.5499
  65   1.0000      -0.423622       -11.5273
  66   1.0000      -0.415200       -11.2982
  67   1.0000      -0.415200       -11.2982
  68   1.0000      -0.410602       -11.1731
  69   1.0000      -0.394850       -10.7444
  70   1.0000      -0.394850       -10.7444
  71   1.0000      -0.391811       -10.6617
  72   1.0000      -0.389100       -10.5879
  73   1.0000      -0.385747       -10.4967
  74   1.0000      -0.384904       -10.4738
  75   1.0000      -0.375602       -10.2206
  76   1.0000      -0.375602       -10.2206
  77   1.0000      -0.367807       -10.0085
  78   1.0000      -0.346486        -9.4284
  79   1.0000      -0.338089        -9.1999
  80   1.0000      -0.335903        -9.1404
  81   1.0000      -0.335903        -9.1404
  82   1.0000      -0.323331        -8.7983
  83   1.0000      -0.312865        -8.5135
  84   1.0000      -0.312865        -8.5135
  85   1.0000      -0.310225        -8.4417
  86   1.0000      -0.282014        -7.6740
  87   1.0000      -0.282014        -7.6740
  88   1.0000      -0.261977        -7.1288
  89   1.0000      -0.248565        -6.7638
  90   1.0000      -0.245757        -6.6874
  91   1.0000      -0.245757        -6.6874
  92   1.0000      -0.199272        -5.4225
  93   1.0000      -0.195794        -5.3278
  94   0.0000      -0.094895        -2.5822
  95   0.0000      -0.085698        -2.3320
  96   0.0000      -0.085698        -2.3320
  97   0.0000      -0.028149        -0.7660
  98   0.0000       0.037136         1.0105

MULLIKEN ATOMIC CHARGES AND SPIN POPULATIONS
--------------------------------------------
   0 Cu:    0.562993    0.580905
   1 N :   -0.257609    0.102866
   2 N :   -0.257609    0.102866
   3 N :   -0.257609    0.102866
   4 N :   -0.257609    0.102866
   5 C :   -0.071700    0.002636
   6 C :    0.139198   -0.004010
   7 C :    0.139198   -0.004010
   8 C :   -0.000621    0.002985
   9 C :   -0.000621    0.002984
  10 C :    0.139198   -0.004010
  11 C :   -0.000621    0.002985
  12 C :   -0.000621    0.002984
  13 C :    0.139198   -0.004010
  14 C :   -0.071700    0.002636
  15 C :   -0.071700    0.002636
  16 C :   -0.071700    0.002636
  17 C :    0.139198   -0.004010
  18 C :    0.139198   -0.004010
  19 C :   -0.000621    0.002984
  20 C :   -0.000621    0.002985
  21 C :    0.139198   -0.004010
  22 C :   -0.000621    0.002985
  23 C :   -0.000621    0.002984
  24 C :    0.139198   -0.004010
  25 H :   -0.030022    0.000805
  26 H :   -0.030022    0.000805
  27 H :   -0.030022    0.000805
  28 H :   -0.030022    0.000805
  29 H :   -0.030022    0.000805
  30 H :   -0.030022    0.000805
  31 H :   -0.030022    0.000805
  32 H :   -0.030022    0.000805
  33 H :   -0.028548   -0.000288
  34 H :   -0.028548   -0.000288
  35 H :   -0.028548   -0.000288
  36 H :   -0.028548   -0.000288
Sum of atomic charges         :   -0.0000000

LOEWDIN ATOMIC CHARGES AND SPIN POPULATIONS
-------------------------------------------
   0 Cu:    0.344447    0.600499
   1 N :   -0.089336    0.093911
   2 N :   -0.089336    0.093911
   3 N :   -0.089336    0.093911
   4 N :   -0.089336    0.093911
   5 C :   -0.038911    0.001621
   6 C :    0.014256   -0.000473
   7 C :    0.014256   -0.000473
   8 C :   -0.033517    0.002264
   9 C :   -0.033517    0.002264
  10 C :    0.014256   -0.000473
  11 C :   -0.033517    0.002264
  12 C :   -0.033517    0.002264
  13 C :    0.014256   -0.000473
  14 C :   -0.038911    0.001621
  15 C :   -0.038911    0.001621
  16 C :   -0.038911    0.001621
  17 C :    0.014256   -0.000473
  18 C :    0.014256   -0.000473
  19 C :   -0.033517    0.002264
  20 C :   -0.033517    0.002264
  21 C :    0.014256   -0.000473
  22 C :   -0.033517    0.002264
  23 C :   -0.033517    0.002264
  24 C :    0.014256   -0.000473
  25 H :    0.023768    0.000478
  26 H :    0.023768    0.000478
  27 H :    0.023768    0.000478
  28 H :    0.023768    0.000478
  29 H :    0.023768    0.000478
  30 H :    0.023768    0.000478
  31 H :    0.023768    0.000478
  32 H :    0.023768    0.000478
  33 H :    0.033122   -0.000194
  34 H :    0.033122   -0.000194
  35 H :    0.033122   -0.000194
  36 H :    0.033122   -0.000194

  Mayer bond orders larger than 0.1
B(  0-Cu,  1-N ) :   0.5426 B(  0-Cu,  2-N ) :   0.5426 B(  0-Cu,  3-N ) :   0.5426
B(  0-Cu,  4-N ) :   0.5426 B(  1-N ,  6-C ) :   1.2826 B(  1-N ,  7-C ) :   1.2826
B(  2-N , 10-C ) :   1.2826 B(  2-N , 13-C ) :   1.2826 B(  3-N , 17-C ) :   1.2826
B(  3-N , 18-C ) :   1.2826 B(  4-N , 21-C ) :   1.2826 B(  4-N , 24-C ) :   1.2826
B(  5-C ,  6-C ) :   1.3022 B(  5-C , 17-C ) :   1.3022 B(  5-C , 33-H ) :   0.9588
B(  6-C ,  9-C ) :   1.1251 B(  7-C ,  8-C ) :   1.1251 B(  7-C , 14-C ) :   1.3022
B(  8-C ,  9-C ) :   1.5265 B(  8-C , 25-H ) :   1.0079 B(  9-C , 26-H ) :   1.0079
B( 10-C , 11-C ) :   1.1251 B( 10-C , 15-C ) :   1.3022 B( 11-C , 12-C ) :   1.5265
B( 11-C , 29-H ) :   1.0079 B( 12-C , 13-C ) :   1.1251 B( 12-C , 30-H ) :   1.0079
B( 13-C , 16-C ) :   1.3022 B( 14-C , 24-C ) :   1.3022 B( 14-C , 35-H ) :   0.9588
B( 15-C , 18-C ) :   1.3022 B( 15-C , 36-H ) :   0.9588 B( 16-C , 21-C ) :   1.3022
B( 16-C , 34-H ) :   0.9588 B( 17-C , 20-C ) :   1.1251 B( 18-C , 19-C ) :   1.1251
B( 19-C , 20-C ) :   1.5265 B( 19-C , 28-H ) :   1.0079 B( 20-C , 27-H ) :   1.0079
B( 21-C , 22-C ) :   1.1251 B( 22-C , 23-C ) :   1.5265 B( 22-C , 31-H ) :   1.0079
B( 23-C , 24-C ) :   1.1251 B( 23-C , 32-H ) :   1.0079

FINAL SINGLE POINT ENERGY     -2627.351886661518

DIPOLE MOMENT
-------------
                                X             Y             Z
Electronic contribution:      0.00000      -0.00000      -0.00000
Nuclear contribution   :      0.00000       0.00000       0.00000
                        -----------------------------------------
Total Dipole Moment    :      0.00000      -0.00000      -0.00000
                        -----------------------------------------
Magnitude (a.u.)       :      0.00000
Magnitude (Debye)      :      0.00000

                             ****ORCA TERMINATED NORMALLY****
TOTAL RUN TIME: 0 days 0 hours 4 minutes 13 seconds 718 msec
