 Gaussian 09, Revision D.01,
 Gaussian 09:  ES64L-G09RevD.01 24-Apr-2013

 ----------------------------------------------------------------------
 #p opt=cartesian m06/Gen guess=mix pseudo=read geom=checkpoint scf=(ti
 ght,xqc,vtl,maxconventionalcycles=10,novaracc,noincfock) integral=(gri
 d=ultrafine) scrf=(pcm,solvent=methanol) nosymm
 ----------------------------------------------------------------------

 ---------------------------------------
 Parker's L2 ligand complex with Tm(III)
 ---------------------------------------
 Structure from the checkpoint file:  "l2_parker_funk_tm.chk"
 Charge =  0 Multiplicity = 3

 SCF Done:  E(UM06) =  -4513.96177174     A.U. after   11 cycles
 SCF Done:  E(UM06) =  -4513.96870004     a.u. after   34 cycles
 SCF Done:  E(UM06) =  -4513.96874789     A.U. after   11 cycles
 SCF Done:  E(UM06) =  -4513.96874807     a.u. after    3 cycles
 SCF Done:  E(UM06) =  -4513.96877317     A.U. after   11 cycles
 SCF Done:  E(UM06) =  -4513.96877333     a.u. after    3 cycles
 SCF Done:  E(UM06) =  -4513.96871320     A.U. after   11 cycles
 SCF Done:  E(UM06) =  -4513.96871374     a.u. after    3 cycles
 SCF Done:  E(UM06) =  -4513.96878903     A.U. after    6 cycles
 SCF Done:  E(UM06) =  -4513.96880170     A.U. after   11 cycles
 SCF Done:  E(UM06) =  -4513.96884086     A.U. after   11 cycles
 SCF Done:  E(UM06) =  -4513.96884086     a.u. after    1 cycles
 SCF Done:  E(UM06) =  -4513.96884095     A.U. after   11 cycles
 SCF Done:  E(UM06) =  -4513.96884095     a.u. after    1 cycles
 SCF Done:  E(UM06) =  -4513.96884104     A.U. after   11 cycles
 SCF Done:  E(UM06) =  -4513.96884104     a.u. after    1 cycles
 SCF Done:  E(UM06) =  -4513.96884111     A.U. after   11 cycles
 SCF Done:  E(UM06) =  -4513.96884111     a.u. after    1 cycles
 SCF Done:  E(UM06) =  -4513.96884118     A.U. after   11 cycles
 SCF Done:  E(UM06) =  -4513.96884118     a.u. after    1 cycles
 Optimization completed.
    -- Stationary point found.

                          Input orientation:
 ---------------------------------------------------------------------
 Center     Atomic      Atomic             Coordinates (Angstroms)
 Number     Number       Type             X           Y           Z
 ---------------------------------------------------------------------
      1          6           0       -3.062653   -3.679675    1.693847
      2          1           0       -2.980762   -4.600387    2.275950
      3          6           0       -4.157797   -3.443445    0.868026
      4          1           0       -4.963694   -4.177391    0.796034
      5         15           0        1.730295    2.514167   -0.674332
      6         15           0       -3.057014    0.230292   -0.668715
      7         15           0        1.353102   -2.773859   -0.663528
      8          8           0        1.443571    1.029899   -0.296355
      9          8           0        3.097176    3.108131   -0.382349
     10          8           0       -1.632205    0.727665   -0.286127
     11          8           0       -4.263359    1.106015   -0.377778
     12          8           0        0.191752   -1.813483   -0.266926
     13          8           0        1.226829   -4.260009   -0.378005
     14          7           0       -1.265843    1.106908    3.136321
     15          7           0       -0.334702   -1.646413    3.127766
     16          7           0        1.582844    0.537997    3.136473
     17          7           0       -0.290194    2.602394    1.091537
     18          7           0       -2.116085   -1.566369    1.088045
     19          7           0        2.418048   -1.046259    1.096872
     20          6           0       -2.107599    0.055575    3.729834
     21          1           0       -2.660555    0.439296    4.612186
     22          1           0       -2.864776   -0.224406    2.981019
     23          6           0       -1.302511   -1.160339    4.150944
     24          1           0       -2.006613   -1.967497    4.419203
     25          1           0       -0.754696   -0.943372    5.080439
     26          6           0        0.993808   -1.850557    3.731033
     27          1           0        0.927673   -2.519719    4.613501
     28          1           0        1.615616   -2.372200    2.987859
     29          6           0        1.092666    1.785654    3.746501
     30          1           0        1.236907    2.590361    3.010016
     31          6           0       -0.365154    1.697853    4.162618
     32          1           0       -0.709591    2.712059    4.432206
     33          1           0       -0.454499    1.114094    5.091585
     34          6           0       -2.125409    2.155127    2.571882
     35          1           0       -2.861809    1.686358    1.890977
     36          1           0       -2.700893    2.676926    3.363057
     37          6           0       -1.319361    3.130380    1.769058
     38          6           0       -1.647724    4.481148    1.688329
     39          1           0       -2.487345    4.872717    2.267208
     40          6           0       -0.894078    5.308956    0.861636
     41          1           0       -1.126084    6.373774    0.786418
     42          6           0        0.150959    4.755820    0.130271
     43          1           0        0.760330    5.361765   -0.545939
     44          6           0        0.411271    3.394810    0.267557
     45          6           0        1.265494    2.704911   -2.421891
     46          6           0        2.080533    3.424066   -3.297411
     47          1           0        2.993636    3.889276   -2.914326
     48          6           0        1.731880    3.529953   -4.643485
     49          1           0        2.370126    4.090451   -5.331850
     50          6           0        0.570337    2.916400   -5.111623
     51          1           0        0.299603    2.998279   -6.167893
     52          6           0       -0.245795    2.196029   -4.237127
     53          1           0       -1.151377    1.702571   -4.605405
     54          6           0        0.099075    2.089827   -2.892598
     55          1           0       -0.532077    1.522658   -2.196889
     56          6           0       -0.809817   -2.922405    2.573252
     57          1           0       -0.033354   -3.329136    1.897828
     58          1           0       -0.971901   -3.673292    3.372350
     59          6           0       -2.057601   -2.719257    1.769642
     60          6           0       -4.204010   -2.262992    0.134951
     61          1           0       -5.035930   -2.039362   -0.538565
     62          6           0       -3.155659   -1.356072    0.267523
     63          6           0       -2.983749   -0.264622   -2.416884
     64          6           0       -1.855643   -0.946135   -2.889175
     65          1           0       -1.042530   -1.192341   -2.194793
     66          6           0       -1.772149   -1.300202   -4.232949
     67          1           0       -0.883488   -1.823252   -4.601921
     68          6           0       -2.813055   -0.975566   -5.105300
     69          1           0       -2.746351   -1.252586   -6.160996
     70          6           0       -3.937270   -0.297021   -4.635764
     71          1           0       -4.748920   -0.042116   -5.322527
     72          6           0       -4.023223    0.059085   -3.290275
     73          1           0       -4.892960    0.600347   -2.905950
     74          6           0        1.725629   -2.450975   -2.413596
     75          6           0        1.735803   -1.131172   -2.880261
     76          1           0        1.541382   -0.309650   -2.179517
     77          6           0        1.963836   -3.507508   -3.293897
     78          1           0        1.941980   -4.532845   -2.912877
     79          6           0        1.648408   -0.547440    4.154043
     80          1           0        2.700254   -0.758322    4.416001
     81          1           0        1.192448   -0.184830    5.087981
     82          1           0        1.701012    2.056873    4.633932
     83          6           0        2.922552    0.772371    2.579722
     84          1           0        2.881922    1.648750    1.903937
     85          1           0        3.654695    1.012539    3.376951
     86          6           0        3.380828   -0.404484    1.773698
     87          6           0        4.720986   -0.771840    1.687391
     88          1           0        5.472154   -0.229352    2.265955
     89          6           0        5.076676   -1.828948    0.855270
     90          1           0        6.120241   -2.141734    0.775078
     91          6           0        4.083637   -2.472907    0.125614
     92          1           0        4.315949   -3.298162   -0.553138
     93          6           0        2.767426   -2.042106    0.268952
     94          6           0        1.984610   -0.874176   -4.225726
     95          1           0        1.980248    0.158383   -4.590721
     96          6           0        2.222931   -1.932131   -5.105152
     97          1           0        2.416399   -1.729730   -6.162191
     98          6           0        2.212362   -3.247225   -4.641221
     99          1           0        2.396051   -4.073168   -5.333667
    100         69           0        0.005915   -0.018464    1.051408
 ---------------------------------------------------------------------

 Alpha  occ. eigenvalues --  -77.33790 -77.33778 -77.33714 -19.17957 -19.17941
 Alpha  occ. eigenvalues --  -19.17806 -19.16137 -19.16105 -19.16077 -17.40846
 Alpha  occ. eigenvalues --  -14.44244 -14.44082 -14.43902 -14.43023 -14.43004
 Alpha  occ. eigenvalues --  -14.42944 -11.74285 -11.73863 -11.72034 -10.31586
 Alpha  occ. eigenvalues --  -10.31576 -10.31520 -10.30073 -10.30044 -10.30039
 Alpha  occ. eigenvalues --  -10.29901 -10.29893 -10.29887 -10.29885 -10.29807
 Alpha  occ. eigenvalues --  -10.29785 -10.29689 -10.29603 -10.29601 -10.28805
 Alpha  occ. eigenvalues --  -10.28801 -10.28772 -10.27727 -10.27719 -10.27689
 Alpha  occ. eigenvalues --  -10.27669 -10.27668 -10.27649 -10.26265 -10.26255
 Alpha  occ. eigenvalues --  -10.26246 -10.26244 -10.26230 -10.26227 -10.26023
 Alpha  occ. eigenvalues --  -10.26014 -10.26007 -10.25912 -10.25907 -10.25878
 Alpha  occ. eigenvalues --  -10.25836 -10.25826 -10.25776 -10.25659 -10.25631
 Alpha  occ. eigenvalues --  -10.25628  -6.73318  -6.73304  -6.73242  -5.92148
 Alpha  occ. eigenvalues --   -5.91768  -5.90228  -5.90200  -5.85192  -4.85398
 Alpha  occ. eigenvalues --   -4.85384  -4.85320  -4.85307  -4.85293  -4.85261
 Alpha  occ. eigenvalues --   -4.85246  -4.85232  -4.85186  -2.15746  -1.17340
 Alpha  occ. eigenvalues --   -1.17126  -1.16559  -1.01359  -1.00795  -1.00745
 Alpha  occ. eigenvalues --   -0.99513  -0.98819  -0.98772  -0.97314  -0.95954
 Alpha  occ. eigenvalues --   -0.95877  -0.95031  -0.94972  -0.94919  -0.87216
 Alpha  occ. eigenvalues --   -0.87093  -0.87078  -0.83414  -0.83411  -0.83378
 Alpha  occ. eigenvalues --   -0.81890  -0.81529  -0.81517  -0.78460  -0.78430
 Alpha  occ. eigenvalues --   -0.76671  -0.76450  -0.76437  -0.76179  -0.75952
 Alpha  occ. eigenvalues --   -0.75931  -0.75814  -0.71652  -0.71613  -0.68720
 Alpha  occ. eigenvalues --   -0.67012  -0.66830  -0.66815  -0.66286  -0.63824
 Alpha  occ. eigenvalues --   -0.63795  -0.62696  -0.62489  -0.62480  -0.62462
 Alpha  occ. eigenvalues --   -0.61713  -0.61488  -0.61473  -0.59976  -0.59912
 Alpha  occ. eigenvalues --   -0.57240  -0.57165  -0.57006  -0.56779  -0.56562
 Alpha  occ. eigenvalues --   -0.54798  -0.54446  -0.54003  -0.53975  -0.53665
 Alpha  occ. eigenvalues --   -0.53622  -0.53103  -0.52789  -0.52344  -0.52305
 Alpha  occ. eigenvalues --   -0.52069  -0.51655  -0.51581  -0.51292  -0.51241
 Alpha  occ. eigenvalues --   -0.51154  -0.50983  -0.50921  -0.49346  -0.49331
 Alpha  occ. eigenvalues --   -0.47310  -0.47301  -0.46938  -0.46779  -0.46692
 Alpha  occ. eigenvalues --   -0.46681  -0.46379  -0.46036  -0.45999  -0.45594
 Alpha  occ. eigenvalues --   -0.45575  -0.45539  -0.44586  -0.44446  -0.44439
 Alpha  occ. eigenvalues --   -0.44363  -0.43838  -0.43824  -0.43586  -0.43454
 Alpha  occ. eigenvalues --   -0.43441  -0.43406  -0.42965  -0.42956  -0.42902
 Alpha  occ. eigenvalues --   -0.42023  -0.42014  -0.41287  -0.41256  -0.41034
 Alpha  occ. eigenvalues --   -0.40400  -0.40367  -0.39719  -0.39684  -0.39591
 Alpha  occ. eigenvalues --   -0.39109  -0.38676  -0.38470  -0.38460  -0.37973
 Alpha  occ. eigenvalues --   -0.37910  -0.37907  -0.36789  -0.36386  -0.36336
 Alpha  occ. eigenvalues --   -0.35971  -0.35889  -0.35842  -0.35207  -0.35155
 Alpha  occ. eigenvalues --   -0.35128  -0.33294  -0.32756  -0.32714  -0.32147
 Alpha  occ. eigenvalues --   -0.32125  -0.32102  -0.30975  -0.30936  -0.30847
 Alpha  occ. eigenvalues --   -0.30538  -0.30049  -0.29996  -0.29720  -0.29233
 Alpha  occ. eigenvalues --   -0.29193  -0.29126  -0.28580  -0.28551  -0.28115
 Alpha  occ. eigenvalues --   -0.27978  -0.27912  -0.27675  -0.26953  -0.26943
 Alpha  occ. eigenvalues --   -0.26719  -0.26575  -0.26489  -0.26467  -0.26227
 Alpha  occ. eigenvalues --   -0.26214
 Alpha virt. eigenvalues --   -0.05069  -0.04933  -0.04909  -0.03449  -0.03428
 Alpha virt. eigenvalues --   -0.02980  -0.02365  -0.01380  -0.01356  -0.01075
 Alpha virt. eigenvalues --   -0.00325  -0.00304   0.01414   0.05356   0.06309

  Beta  occ. eigenvalues --  -77.33791 -77.33778 -77.33714 -19.17925 -19.17913
  Beta  occ. eigenvalues --  -19.17786 -19.16134 -19.16102 -19.16077 -17.26929
  Beta  occ. eigenvalues --  -14.44224 -14.44077 -14.43902 -14.43003 -14.42982
  Beta  occ. eigenvalues --  -14.42925 -11.60603 -11.60469 -11.60398 -10.31587
  Beta  occ. eigenvalues --  -10.31577 -10.31521 -10.30073 -10.30045 -10.30040
  Beta  occ. eigenvalues --  -10.29902 -10.29893 -10.29887 -10.29885 -10.29807
  Beta  occ. eigenvalues --  -10.29785 -10.29689 -10.29603 -10.29601 -10.28806
  Beta  occ. eigenvalues --  -10.28802 -10.28773 -10.27726 -10.27718 -10.27688
  Beta  occ. eigenvalues --  -10.27668 -10.27667 -10.27648 -10.26265 -10.26255
  Beta  occ. eigenvalues --  -10.26245 -10.26244 -10.26230 -10.26227 -10.26023
  Beta  occ. eigenvalues --  -10.26014 -10.26007 -10.25912 -10.25907 -10.25878
  Beta  occ. eigenvalues --  -10.25836 -10.25826 -10.25776 -10.25658 -10.25630
  Beta  occ. eigenvalues --  -10.25628  -6.73319  -6.73304  -6.73243  -5.78445
  Beta  occ. eigenvalues --   -5.77054  -5.76986  -5.75737  -5.75502  -4.85399
  Beta  occ. eigenvalues --   -4.85384  -4.85320  -4.85307  -4.85293  -4.85261
  Beta  occ. eigenvalues --   -4.85246  -4.85232  -4.85186  -2.13495  -1.15477
  Beta  occ. eigenvalues --   -1.15321  -1.14836  -1.01296  -1.00699  -1.00660
  Beta  occ. eigenvalues --   -0.99457  -0.98784  -0.98740  -0.97291  -0.95930
  Beta  occ. eigenvalues --   -0.95867  -0.94966  -0.94910  -0.94869  -0.87214
  Beta  occ. eigenvalues --   -0.87091  -0.87077  -0.83405  -0.83402  -0.83370
  Beta  occ. eigenvalues --   -0.81885  -0.81524  -0.81512  -0.78456  -0.78426
  Beta  occ. eigenvalues --   -0.76668  -0.76447  -0.76435  -0.76179  -0.75952
  Beta  occ. eigenvalues --   -0.75931  -0.75810  -0.71646  -0.71609  -0.68713
  Beta  occ. eigenvalues --   -0.67002  -0.66818  -0.66804  -0.66279  -0.63812
  Beta  occ. eigenvalues --   -0.63783  -0.62680  -0.62480  -0.62471  -0.62447
  Beta  occ. eigenvalues --   -0.61712  -0.61488  -0.61472  -0.59952  -0.59899
  Beta  occ. eigenvalues --   -0.56987  -0.56976  -0.56863  -0.54783  -0.54435
  Beta  occ. eigenvalues --   -0.53664  -0.53652  -0.52354  -0.52333  -0.52074
  Beta  occ. eigenvalues --   -0.51667  -0.51285  -0.51255  -0.51213  -0.51076
  Beta  occ. eigenvalues --   -0.51068  -0.49370  -0.49359  -0.47361  -0.47353
  Beta  occ. eigenvalues --   -0.46937  -0.46775  -0.46732  -0.46721  -0.46469
  Beta  occ. eigenvalues --   -0.46378  -0.46319  -0.46030  -0.46008  -0.45867
  Beta  occ. eigenvalues --   -0.45638  -0.45582  -0.45409  -0.45353  -0.45345
  Beta  occ. eigenvalues --   -0.44558  -0.44361  -0.44231  -0.44220  -0.43816
  Beta  occ. eigenvalues --   -0.43777  -0.43563  -0.43426  -0.43415  -0.43384
  Beta  occ. eigenvalues --   -0.42945  -0.42940  -0.42888  -0.41955  -0.41935
  Beta  occ. eigenvalues --   -0.41269  -0.41240  -0.41021  -0.40386  -0.40352
  Beta  occ. eigenvalues --   -0.39674  -0.39641  -0.39590  -0.39103  -0.38669
  Beta  occ. eigenvalues --   -0.38456  -0.38445  -0.37966  -0.37896  -0.37893
  Beta  occ. eigenvalues --   -0.36786  -0.36366  -0.36314  -0.35953  -0.35887
  Beta  occ. eigenvalues --   -0.35838  -0.35210  -0.35152  -0.35124  -0.33271
  Beta  occ. eigenvalues --   -0.32733  -0.32660  -0.32108  -0.32090  -0.32066
  Beta  occ. eigenvalues --   -0.30919  -0.30868  -0.30859  -0.30685  -0.29979
  Beta  occ. eigenvalues --   -0.29947  -0.29696  -0.29218  -0.29172  -0.29102
  Beta  occ. eigenvalues --   -0.28534  -0.28520  -0.28179  -0.28039  -0.27872
  Beta  occ. eigenvalues --   -0.27673  -0.26942  -0.26934  -0.26740  -0.26569
  Beta  occ. eigenvalues --   -0.26485  -0.26463  -0.26218  -0.26202
  Beta virt. eigenvalues --   -0.15373  -0.15227  -0.05056  -0.04920  -0.04898
  Beta virt. eigenvalues --   -0.03450  -0.03428  -0.02979  -0.02358  -0.01376
  Beta virt. eigenvalues --   -0.01352  -0.01072  -0.00324  -0.00303   0.01418

 Mulliken charges and spin densities:
               1          2
     1  C    0.004359   0.000654
     2  H    0.029252   0.000100
     3  C    0.065709  -0.000622
     4  H    0.042562   0.000037
     5  P    0.889260  -0.000043
     6  P    0.887026   0.000070
     7  P    0.888411   0.000078
     8  O   -0.771003   0.015404
     9  O   -0.578229   0.001637
    10  O   -0.768769   0.009850
    11  O   -0.579992   0.000455
    12  O   -0.771393   0.013002
    13  O   -0.579434   0.001262
    14  N   -0.471746   0.000932
    15  N   -0.480705   0.008908
    16  N   -0.477636   0.002918
    17  N   -0.371887   0.007950
    18  N   -0.375927   0.008935
    19  N   -0.377903   0.008277
    20  C    0.076124   0.000098
    21  H    0.056444  -0.000023
    22  H    0.045276  -0.000005
    23  C    0.072352  -0.000432
    24  H    0.067047   0.000219
    25  H    0.053761   0.000112
    26  C    0.075070  -0.000434
    27  H    0.058190   0.000601
    28  H    0.046313   0.000067
    29  C    0.077547  -0.000335
    30  H    0.045481   0.000023
    31  C    0.070648  -0.000014
    32  H    0.065972   0.000003
    33  H    0.053142  -0.000001
    34  C    0.124665   0.000077
    35  H    0.066716  -0.000065
    36  H    0.053182  -0.000011
    37  C    0.019993  -0.000617
    38  C    0.004533   0.000617
    39  H    0.028845   0.000061
    40  C    0.065212  -0.000530
    41  H    0.042282   0.000033
    42  C    0.012112   0.000584
    43  H    0.023774   0.000066
    44  C   -0.087034  -0.000804
    45  C   -0.165840   0.000307
    46  C    0.000489   0.000205
    47  H   -0.000275  -0.000009
    48  C   -0.005698  -0.000049
    49  H    0.018622   0.000009
    50  C   -0.005642   0.000222
    51  H    0.018467  -0.000011
    52  C    0.002666  -0.000125
    53  H   -0.001104   0.000010
    54  C    0.043441   0.000268
    55  H   -0.033125  -0.000229
    56  C    0.125054  -0.000319
    57  H    0.068999   0.000017
    58  H    0.055371   0.000479
    59  C    0.022835  -0.000606
    60  C    0.011773   0.000684
    61  H    0.023763   0.000069
    62  C   -0.086613  -0.000815
    63  C   -0.163904   0.000425
    64  C    0.043702   0.000405
    65  H   -0.036792  -0.000305
    66  C    0.004210  -0.000157
    67  H   -0.001526   0.000015
    68  C   -0.005776   0.000310
    69  H    0.018291  -0.000015
    70  C   -0.005689  -0.000090
    71  H    0.018548   0.000012
    72  C   -0.000451   0.000280
    73  H   -0.000296  -0.000003
    74  C   -0.166530   0.000265
    75  C    0.046039   0.000345
    76  H   -0.036095  -0.000309
    77  C    0.000284   0.000250
    78  H   -0.000417  -0.000005
    79  C    0.071982  -0.000068
    80  H    0.067340   0.000049
    81  H    0.054281   0.000016
    82  H    0.056656   0.000050
    83  C    0.122113   0.000089
    84  H    0.067755  -0.000039
    85  H    0.055118   0.000227
    86  C    0.023860  -0.000620
    87  C    0.004131   0.000648
    88  H    0.029192   0.000075
    89  C    0.065912  -0.000607
    90  H    0.042564   0.000041
    91  C    0.011678   0.000588
    92  H    0.023928   0.000085
    93  C   -0.085153  -0.000663
    94  C    0.003875  -0.000145
    95  H   -0.002061   0.000013
    96  C   -0.005596   0.000278
    97  H    0.018078  -0.000014
    98  C   -0.005831  -0.000085
    99  H    0.018487   0.000010
   100  Tm   2.135305   1.919451
 Sum of Mulliken charges =   0.00000   2.00000

 Dipole moment (field-independent basis, Debye):
    X=              0.0215    Y=              0.0604    Z=             15.7853  Tot=             15.7855
 Quadrupole moment (field-independent basis, Debye-Ang):
   XX=           -370.7721   YY=           -371.2963   ZZ=           -287.5014
   XY=              1.1897   XZ=              0.1555   YZ=             -0.4824

 Normal termination of Gaussian 09 at Sun Nov 29 22:01:47 2015.
