 Gaussian 09, Revision D.01,
 Gaussian 09:  ES64L-G09RevD.01 24-Apr-2013

 ----------------------------------------------------------------------
 #p opt=cartesian m06/Gen guess=mix pseudo=read scf=(tight,qc,vtl) inte
 gral=(grid=ultrafine) scrf=(pcm,solvent=methanol) nosymm
 ----------------------------------------------------------------------

 ---------------------------------------
 Parker's L2 ligand complex with Yb(III)
 ---------------------------------------
 Symbolic Z-matrix:
 Charge =  0 Multiplicity = 2

 SCF Done:  E(UM06) =  -4587.54367681     a.u. after   50 cycles
 SCF Done:  E(UM06) =  -4587.54538228     a.u. after   12 cycles
 SCF Done:  E(UM06) =  -4587.54610541     a.u. after   25 cycles
 SCF Done:  E(UM06) =  -4587.54647017     a.u. after   47 cycles
 SCF Done:  E(UM06) =  -4587.54622481     a.u. after   32 cycles
 SCF Done:  E(UM06) =  -4587.54655636     a.u. after    2 cycles
 SCF Done:  E(UM06) =  -4587.54668831     a.u. after   15 cycles
 SCF Done:  E(UM06) =  -4587.54677572     a.u. after   43 cycles
 SCF Done:  E(UM06) =  -4587.54674324     a.u. after   37 cycles
 SCF Done:  E(UM06) =  -4587.54685955     a.u. after    2 cycles
 SCF Done:  E(UM06) =  -4587.54694186     a.u. after    2 cycles
 SCF Done:  E(UM06) =  -4587.54694184     a.u. after    2 cycles
 SCF Done:  E(UM06) =  -4587.54694208     a.u. after    2 cycles
 SCF Done:  E(UM06) =  -4587.54694217     a.u. after    2 cycles
 SCF Done:  E(UM06) =  -4587.54694224     a.u. after    2 cycles
 SCF Done:  E(UM06) =  -4587.54694232     a.u. after    2 cycles
 SCF Done:  E(UM06) =  -4587.54694242     a.u. after    2 cycles
 SCF Done:  E(UM06) =  -4587.54694249     a.u. after    2 cycles
 SCF Done:  E(UM06) =  -4587.54694250     a.u. after    3 cycles
 SCF Done:  E(UM06) =  -4587.54694254     a.u. after    2 cycles
 Optimization completed.
    -- Stationary point found.

                          Input orientation:
 ---------------------------------------------------------------------
 Center     Atomic      Atomic             Coordinates (Angstroms)
 Number     Number       Type             X           Y           Z
 ---------------------------------------------------------------------
      1          6           0       -3.023934   -3.696283    1.670824
      2          1           0       -2.933713   -4.623309    2.241611
      3          6           0       -4.117362   -3.463006    0.842265
      4          1           0       -4.914165   -4.205412    0.756983
      5         15           0        1.728972    2.511255   -0.656065
      6         15           0       -3.038060    0.234674   -0.651746
      7         15           0        1.327578   -2.754605   -0.648176
      8          8           0        1.439330    1.028342   -0.274065
      9          8           0        3.092964    3.107126   -0.354460
     10          8           0       -1.605928    0.719259   -0.274035
     11          8           0       -4.231783    1.121490   -0.342626
     12          8           0        0.184096   -1.766252   -0.267436
     13          8           0        1.171941   -4.233859   -0.341240
     14          7           0       -1.268736    1.093703    3.124289
     15          7           0       -0.315925   -1.647502    3.125412
     16          7           0        1.581548    0.549727    3.129090
     17          7           0       -0.298539    2.596970    1.095643
     18          7           0       -2.099658   -1.564771    1.096876
     19          7           0        2.408289   -1.034295    1.101130
     20          6           0       -2.102526    0.040082    3.725979
     21          1           0       -2.652090    0.425782    4.609470
     22          1           0       -2.861963   -0.245966    2.982303
     23          6           0       -1.288221   -1.169591    4.147506
     24          1           0       -1.986388   -1.982058    4.415799
     25          1           0       -0.743284   -0.947936    5.077632
     26          6           0        1.011453   -1.842308    3.731520
     27          1           0        0.948868   -2.507696    4.617331
     28          1           0        1.638415   -2.362564    2.991887
     29          6           0        1.084308    1.795079    3.736641
     30          1           0        1.223968    2.599914    2.999591
     31          6           0       -0.372994    1.696049    4.150328
     32          1           0       -0.727499    2.707484    4.416785
     33          1           0       -0.458494    1.113572    5.080332
     34          6           0       -2.138740    2.135652    2.562827
     35          1           0       -2.874339    1.663312    1.883334
     36          1           0       -2.715369    2.651997    3.356615
     37          6           0       -1.339898    3.116530    1.760484
     38          6           0       -1.684680    4.462358    1.666271
     39          1           0       -2.534033    4.847814    2.234953
     40          6           0       -0.934719    5.292860    0.838972
     41          1           0       -1.179583    6.353988    0.753144
     42          6           0        0.122829    4.747235    0.119716
     43          1           0        0.728869    5.355395   -0.557468
     44          6           0        0.398915    3.390900    0.270100
     45          6           0        1.279074    2.694437   -2.408221
     46          6           0        2.101002    3.409350   -3.280705
     47          1           0        3.012210    3.874574   -2.893182
     48          6           0        1.760993    3.511617   -4.629300
     49          1           0        2.404494    4.068931   -5.315348
     50          6           0        0.601228    2.898829   -5.102830
     51          1           0        0.337254    2.978133   -6.161010
     52          6           0       -0.221668    2.182396   -4.231396
     53          1           0       -1.125653    1.688942   -4.603743
     54          6           0        0.114679    2.079792   -2.884447
     55          1           0       -0.520966    1.515424   -2.190617
     56          6           0       -0.783000   -2.924335    2.568738
     57          1           0       -0.005336   -3.328370    1.892402
     58          1           0       -0.943711   -3.678147    3.365702
     59          6           0       -2.030476   -2.724978    1.763927
     60          6           0       -4.172835   -2.275048    0.121540
     61          1           0       -5.002462   -2.054613   -0.555842
     62          6           0       -3.135767   -1.358285    0.271222
     63          6           0       -2.979626   -0.240992   -2.405095
     64          6           0       -1.868890   -0.943213   -2.888167
     65          1           0       -1.060724   -1.216984   -2.198291
     66          6           0       -1.796039   -1.280694   -4.236765
     67          1           0       -0.921017   -1.820164   -4.614543
     68          6           0       -2.829999   -0.918775   -5.102868
     69          1           0       -2.771503   -1.182857   -6.162353
     70          6           0       -3.936685   -0.219559   -4.622295
     71          1           0       -4.742856    0.064318   -5.304087
     72          6           0       -4.012250    0.119803   -3.271876
     73          1           0       -4.868128    0.676171   -2.878258
     74          6           0        1.703798   -2.458223   -2.401468
     75          6           0        1.728470   -1.142671   -2.879435
     76          1           0        1.541462   -0.314047   -2.185041
     77          6           0        1.930573   -3.525180   -3.272001
     78          1           0        1.897211   -4.546959   -2.882303
     79          6           0        1.654689   -0.532281    4.150259
     80          1           0        2.707950   -0.732528    4.414898
     81          1           0        1.193919   -0.170394    5.082073
     82          1           0        1.689068    2.071131    4.625113
     83          6           0        2.920554    0.787633    2.573418
     84          1           0        2.880080    1.663181    1.896815
     85          1           0        3.652595    1.027723    3.370792
     86          6           0        3.375769   -0.390878    1.769144
     87          6           0        4.714938   -0.760447    1.676493
     88          1           0        5.470269   -0.216466    2.248240
     89          6           0        5.064164   -1.821980    0.847228
     90          1           0        6.106709   -2.137034    0.762581
     91          6           0        4.066030   -2.466932    0.125281
     92          1           0        4.293472   -3.294612   -0.552198
     93          6           0        2.751653   -2.032530    0.274462
     94          6           0        1.980339   -0.900048   -4.226876
     95          1           0        1.987205    0.129202   -4.601106
     96          6           0        2.207868   -1.968412   -5.096661
     97          1           0        2.404163   -1.777487   -6.155305
     98          6           0        2.182917   -3.279250   -4.621342
     99          1           0        2.358175   -4.113087   -5.306462
    100         70           0        0.004900   -0.004254    1.054853
 ---------------------------------------------------------------------

 Alpha  occ. eigenvalues --  -77.33814 -77.33802 -77.33799 -19.17936 -19.17933
 Alpha  occ. eigenvalues --  -19.17926 -19.16168 -19.16152 -19.16144 -17.87153
 Alpha  occ. eigenvalues --  -14.44014 -14.44010 -14.43983 -14.42973 -14.42969
 Alpha  occ. eigenvalues --  -14.42968 -12.15228 -12.15211 -12.14610 -10.31514
 Alpha  occ. eigenvalues --  -10.31513 -10.31510 -10.30029 -10.30028 -10.30023
 Alpha  occ. eigenvalues --  -10.29794 -10.29782 -10.29778 -10.29767 -10.29760
 Alpha  occ. eigenvalues --  -10.29746 -10.29551 -10.29539 -10.29533 -10.28774
 Alpha  occ. eigenvalues --  -10.28769 -10.28765 -10.27688 -10.27684 -10.27679
 Alpha  occ. eigenvalues --  -10.27656 -10.27649 -10.27644 -10.26282 -10.26269
 Alpha  occ. eigenvalues --  -10.26262 -10.26262 -10.26254 -10.26251 -10.26036
 Alpha  occ. eigenvalues --  -10.26026 -10.26022 -10.25936 -10.25912 -10.25897
 Alpha  occ. eigenvalues --  -10.25862 -10.25828 -10.25804 -10.25680 -10.25667
 Alpha  occ. eigenvalues --  -10.25647  -6.73344  -6.73330  -6.73328  -5.74516
 Alpha  occ. eigenvalues --   -5.74504  -5.74047  -5.70742  -5.70741  -4.85425
 Alpha  occ. eigenvalues --   -4.85412  -4.85410  -4.85331  -4.85318  -4.85315
 Alpha  occ. eigenvalues --   -4.85285  -4.85272  -4.85270  -2.17163  -1.19997
 Alpha  occ. eigenvalues --   -1.19988  -1.19694  -1.01424  -1.00861  -1.00846
 Alpha  occ. eigenvalues --   -0.99504  -0.98795  -0.98783  -0.97267  -0.95851
 Alpha  occ. eigenvalues --   -0.95839  -0.95085  -0.95012  -0.95002  -0.87235
 Alpha  occ. eigenvalues --   -0.87112  -0.87097  -0.83383  -0.83379  -0.83372
 Alpha  occ. eigenvalues --   -0.81849  -0.81482  -0.81481  -0.78378  -0.78372
 Alpha  occ. eigenvalues --   -0.76684  -0.76469  -0.76457  -0.76196  -0.75969
 Alpha  occ. eigenvalues --   -0.75951  -0.75771  -0.71576  -0.71569  -0.68671
 Alpha  occ. eigenvalues --   -0.66994  -0.66821  -0.66814  -0.66203  -0.63781
 Alpha  occ. eigenvalues --   -0.63775  -0.62659  -0.62514  -0.62499  -0.62475
 Alpha  occ. eigenvalues --   -0.61731  -0.61506  -0.61491  -0.59880  -0.59871
 Alpha  occ. eigenvalues --   -0.57026  -0.57016  -0.56934  -0.54858  -0.54621
 Alpha  occ. eigenvalues --   -0.54375  -0.53667  -0.53659  -0.52344  -0.52340
 Alpha  occ. eigenvalues --   -0.52087  -0.51959  -0.51678  -0.51666  -0.51453
 Alpha  occ. eigenvalues --   -0.51251  -0.51229  -0.51217  -0.50953  -0.50946
 Alpha  occ. eigenvalues --   -0.50425  -0.50355  -0.50350  -0.49262  -0.49261
 Alpha  occ. eigenvalues --   -0.47270  -0.47263  -0.46912  -0.46774  -0.46707
 Alpha  occ. eigenvalues --   -0.46696  -0.46383  -0.45983  -0.45975  -0.45593
 Alpha  occ. eigenvalues --   -0.45587  -0.45574  -0.44562  -0.44442  -0.44434
 Alpha  occ. eigenvalues --   -0.44351  -0.43828  -0.43817  -0.43561  -0.43447
 Alpha  occ. eigenvalues --   -0.43442  -0.43401  -0.42975  -0.42963  -0.42911
 Alpha  occ. eigenvalues --   -0.42008  -0.41999  -0.41214  -0.41202  -0.40995
 Alpha  occ. eigenvalues --   -0.40365  -0.40356  -0.39729  -0.39719  -0.39592
 Alpha  occ. eigenvalues --   -0.39081  -0.38657  -0.38465  -0.38462  -0.37955
 Alpha  occ. eigenvalues --   -0.37894  -0.37885  -0.36717  -0.36375  -0.36355
 Alpha  occ. eigenvalues --   -0.35989  -0.35790  -0.35771  -0.35221  -0.35175
 Alpha  occ. eigenvalues --   -0.35156  -0.33333  -0.32796  -0.32786  -0.32115
 Alpha  occ. eigenvalues --   -0.32108  -0.32088  -0.31033  -0.31026  -0.30800
 Alpha  occ. eigenvalues --   -0.30536  -0.29981  -0.29977  -0.29656  -0.29237
 Alpha  occ. eigenvalues --   -0.29158  -0.29141  -0.28589  -0.28581  -0.28096
 Alpha  occ. eigenvalues --   -0.27912  -0.27897  -0.27693  -0.26970  -0.26963
 Alpha  occ. eigenvalues --   -0.26734  -0.26583  -0.26500  -0.26486  -0.26230
 Alpha  occ. eigenvalues --   -0.26219
 Alpha virt. eigenvalues --   -0.05026  -0.04896  -0.04893  -0.03406  -0.03403
 Alpha virt. eigenvalues --   -0.02942  -0.02407  -0.01421  -0.01398  -0.01102
 Alpha virt. eigenvalues --   -0.00328  -0.00315   0.00746   0.05399   0.06375

  Beta  occ. eigenvalues --  -77.33814 -77.33802 -77.33799 -19.17918 -19.17914
  Beta  occ. eigenvalues --  -19.17907 -19.16167 -19.16151 -19.16143 -17.79609
  Beta  occ. eigenvalues --  -14.44015 -14.44011 -14.43984 -14.42957 -14.42953
  Beta  occ. eigenvalues --  -14.42952 -12.08240 -12.08235 -12.08012 -10.31515
  Beta  occ. eigenvalues --  -10.31514 -10.31510 -10.30029 -10.30028 -10.30023
  Beta  occ. eigenvalues --  -10.29794 -10.29782 -10.29778 -10.29767 -10.29759
  Beta  occ. eigenvalues --  -10.29745 -10.29551 -10.29539 -10.29533 -10.28775
  Beta  occ. eigenvalues --  -10.28769 -10.28766 -10.27687 -10.27683 -10.27678
  Beta  occ. eigenvalues --  -10.27656 -10.27648 -10.27643 -10.26282 -10.26268
  Beta  occ. eigenvalues --  -10.26262 -10.26261 -10.26254 -10.26250 -10.26036
  Beta  occ. eigenvalues --  -10.26026 -10.26022 -10.25936 -10.25912 -10.25897
  Beta  occ. eigenvalues --  -10.25861 -10.25828 -10.25804 -10.25679 -10.25666
  Beta  occ. eigenvalues --  -10.25647  -6.73344  -6.73330  -6.73328  -5.67955
  Beta  occ. eigenvalues --   -5.67954  -5.64980  -5.64980  -5.64938  -4.85425
  Beta  occ. eigenvalues --   -4.85412  -4.85410  -4.85331  -4.85318  -4.85315
  Beta  occ. eigenvalues --   -4.85286  -4.85272  -4.85270  -2.16122  -1.19100
  Beta  occ. eigenvalues --   -1.19091  -1.18878  -1.01387  -1.00812  -1.00797
  Beta  occ. eigenvalues --   -0.99484  -0.98776  -0.98764  -0.97254  -0.95847
  Beta  occ. eigenvalues --   -0.95835  -0.95053  -0.94981  -0.94970  -0.87234
  Beta  occ. eigenvalues --   -0.87111  -0.87096  -0.83377  -0.83372  -0.83366
  Beta  occ. eigenvalues --   -0.81845  -0.81479  -0.81478  -0.78377  -0.78371
  Beta  occ. eigenvalues --   -0.76681  -0.76467  -0.76455  -0.76195  -0.75969
  Beta  occ. eigenvalues --   -0.75950  -0.75770  -0.71574  -0.71567  -0.68668
  Beta  occ. eigenvalues --   -0.66988  -0.66813  -0.66806  -0.66202  -0.63774
  Beta  occ. eigenvalues --   -0.63768  -0.62649  -0.62507  -0.62492  -0.62465
  Beta  occ. eigenvalues --   -0.61730  -0.61505  -0.61490  -0.59877  -0.59868
  Beta  occ. eigenvalues --   -0.57010  -0.57000  -0.56878  -0.54736  -0.54417
  Beta  occ. eigenvalues --   -0.53656  -0.53648  -0.52312  -0.52308  -0.52073
  Beta  occ. eigenvalues --   -0.51639  -0.51242  -0.51214  -0.51208  -0.51094
  Beta  occ. eigenvalues --   -0.51088  -0.49334  -0.49334  -0.47664  -0.47663
  Beta  occ. eigenvalues --   -0.47462  -0.47419  -0.47345  -0.47342  -0.47086
  Beta  occ. eigenvalues --   -0.47078  -0.46909  -0.46768  -0.46673  -0.46663
  Beta  occ. eigenvalues --   -0.46388  -0.45974  -0.45966  -0.45568  -0.45553
  Beta  occ. eigenvalues --   -0.45548  -0.44547  -0.44360  -0.44349  -0.44342
  Beta  occ. eigenvalues --   -0.43805  -0.43794  -0.43550  -0.43433  -0.43428
  Beta  occ. eigenvalues --   -0.43392  -0.42968  -0.42955  -0.42905  -0.41967
  Beta  occ. eigenvalues --   -0.41958  -0.41208  -0.41196  -0.40989  -0.40355
  Beta  occ. eigenvalues --   -0.40346  -0.39705  -0.39695  -0.39599  -0.39079
  Beta  occ. eigenvalues --   -0.38655  -0.38455  -0.38452  -0.37952  -0.37886
  Beta  occ. eigenvalues --   -0.37878  -0.36717  -0.36358  -0.36338  -0.35980
  Beta  occ. eigenvalues --   -0.35789  -0.35770  -0.35224  -0.35172  -0.35154
  Beta  occ. eigenvalues --   -0.33318  -0.32752  -0.32743  -0.32086  -0.32081
  Beta  occ. eigenvalues --   -0.32072  -0.30964  -0.30958  -0.30871  -0.30686
  Beta  occ. eigenvalues --   -0.29945  -0.29941  -0.29656  -0.29230  -0.29140
  Beta  occ. eigenvalues --   -0.29123  -0.28566  -0.28560  -0.28163  -0.27890
  Beta  occ. eigenvalues --   -0.27876  -0.27692  -0.26963  -0.26956  -0.26754
  Beta  occ. eigenvalues --   -0.26587  -0.26497  -0.26483  -0.26216  -0.26206
  Beta virt. eigenvalues --   -0.15716  -0.05016  -0.04888  -0.04884  -0.03406
  Beta virt. eigenvalues --   -0.03403  -0.02942  -0.02400  -0.01417  -0.01394
  Beta virt. eigenvalues --   -0.01099  -0.00327  -0.00314   0.00747   0.05400

 Mulliken charges and spin densities:
               1          2
     1  C    0.004383   0.000480
     2  H    0.028812   0.000046
     3  C    0.065794  -0.000432
     4  H    0.042309   0.000026
     5  P    0.890142   0.000123
     6  P    0.889669   0.000118
     7  P    0.889336   0.000123
     8  O   -0.771889   0.008818
     9  O   -0.577626   0.000353
    10  O   -0.772517   0.008874
    11  O   -0.577357   0.000319
    12  O   -0.773043   0.008826
    13  O   -0.577602   0.000343
    14  N   -0.475392   0.000098
    15  N   -0.476938   0.000081
    16  N   -0.476317   0.000119
    17  N   -0.374157   0.006228
    18  N   -0.373729   0.006051
    19  N   -0.375359   0.006304
    20  C    0.077688  -0.000088
    21  H    0.056123  -0.000026
    22  H    0.045387   0.000000
    23  C    0.071904  -0.000012
    24  H    0.066116  -0.000005
    25  H    0.052903   0.000002
    26  C    0.077450  -0.000085
    27  H    0.056326  -0.000028
    28  H    0.045192  -0.000001
    29  C    0.077788  -0.000093
    30  H    0.045272   0.000001
    31  C    0.071045  -0.000010
    32  H    0.066118  -0.000004
    33  H    0.053217   0.000002
    34  C    0.124042   0.000169
    35  H    0.065751  -0.000049
    36  H    0.053622  -0.000033
    37  C    0.022040  -0.000492
    38  C    0.004299   0.000493
    39  H    0.028757   0.000048
    40  C    0.065776  -0.000444
    41  H    0.042251   0.000027
    42  C    0.011636   0.000451
    43  H    0.023846   0.000063
    44  C   -0.086452  -0.000559
    45  C   -0.165372   0.000358
    46  C    0.000418   0.000262
    47  H   -0.000203  -0.000003
    48  C   -0.005651  -0.000090
    49  H    0.018654   0.000010
    50  C   -0.005617   0.000302
    51  H    0.018378  -0.000015
    52  C    0.004023  -0.000152
    53  H   -0.001556   0.000014
    54  C    0.044168   0.000351
    55  H   -0.033384  -0.000199
    56  C    0.124820   0.000166
    57  H    0.066480  -0.000047
    58  H    0.053819  -0.000034
    59  C    0.021659  -0.000481
    60  C    0.011602   0.000436
    61  H    0.023908   0.000062
    62  C   -0.086211  -0.000543
    63  C   -0.164662   0.000361
    64  C    0.043513   0.000346
    65  H   -0.032282  -0.000192
    66  C    0.003338  -0.000153
    67  H   -0.001178   0.000013
    68  C   -0.005627   0.000303
    69  H    0.018592  -0.000015
    70  C   -0.005548  -0.000089
    71  H    0.018749   0.000011
    72  C    0.000659   0.000264
    73  H   -0.000100  -0.000003
    74  C   -0.165243   0.000361
    75  C    0.046728   0.000354
    76  H   -0.035054  -0.000226
    77  C   -0.000127   0.000261
    78  H   -0.000120  -0.000003
    79  C    0.071200  -0.000013
    80  H    0.066402  -0.000003
    81  H    0.053449   0.000002
    82  H    0.056234  -0.000026
    83  C    0.123907   0.000176
    84  H    0.066544  -0.000048
    85  H    0.054034  -0.000030
    86  C    0.022995  -0.000500
    87  C    0.004071   0.000496
    88  H    0.028783   0.000049
    89  C    0.065859  -0.000448
    90  H    0.042223   0.000027
    91  C    0.011672   0.000456
    92  H    0.023810   0.000064
    93  C   -0.085601  -0.000563
    94  C    0.004383  -0.000151
    95  H   -0.002050   0.000014
    96  C   -0.005496   0.000301
    97  H    0.018270  -0.000015
    98  C   -0.005896  -0.000089
    99  H    0.018657   0.000011
   100  Yb   2.128359   0.952075
 Sum of Mulliken charges =   0.00000   1.00000

 Dipole moment (field-independent basis, Debye):
    X=             -0.0789    Y=              0.0086    Z=             15.1347  Tot=             15.1349
 Quadrupole moment (field-independent basis, Debye-Ang):
   XX=           -369.6830   YY=           -370.0251   ZZ=           -287.7142
   XY=              0.1882   XZ=              0.2938   YZ=             -0.0460

 Normal termination of Gaussian 09 at Mon Nov 23 19:03:44 2015.
