 Gaussian 03, Revision D.01,
 Gaussian 03:  IA32L-G03RevD.01 13-Oct-2005

 ----------------------------------------------------------------------
 #p nmr=(csgt,susceptibility) ub3lyp/Gen guess=read scf=tight pseudo=re
 ad geom=checkpoint
 ----------------------------------------------------------------------

 ---------------------------------------------------
 No Z-matrix found on checkpoint file.
 Cartesian coordinates read from the checkpoint file:
 eu_tetrapy_nmr.chk
 Charge =  3 Multiplicity = 7

                         Standard orientation:
 ---------------------------------------------------------------------
 Center     Atomic     Atomic              Coordinates (Angstroms)
 Number     Number      Type              X           Y           Z
 ---------------------------------------------------------------------
    1          6             0       -2.500069   -0.993506    2.347885
    2          1             0       -3.067312   -1.553603    1.592579
    3          1             0       -3.189097   -0.835587    3.197069
    4          6             0       -1.307325   -1.813696    2.827298
    5          1             0       -0.780733   -1.283667    3.632597
    6          1             0       -1.678780   -2.753235    3.275696
    7          7             0       -0.319221   -2.107864    1.747603
    8          7             0       -2.107864    0.319221    1.747603
    9          6             0       -1.813696    1.307325    2.827298
   10          1             0       -2.753235    1.678780    3.275696
   11          1             0       -1.283667    0.780733    3.632597
   12          6             0       -0.993506    2.500069    2.347885
   13          1             0       -0.835587    3.189097    3.197069
   14          1             0       -1.553603    3.067312    1.592579
   15          6             0        0.993506   -2.500069    2.347885
   16          1             0        1.553603   -3.067312    1.592579
   17          1             0        0.835587   -3.189097    3.197069
   18          6             0        1.813696   -1.307325    2.827298
   19          1             0        2.753235   -1.678780    3.275696
   20          1             0        1.283667   -0.780733    3.632597
   21          7             0        0.319221    2.107864    1.747603
   22          7             0        2.107864   -0.319221    1.747603
   23          6             0        2.500069    0.993506    2.347885
   24          1             0        3.067312    1.553603    1.592579
   25          1             0        3.189097    0.835587    3.197069
   26          6             0        1.307325    1.813696    2.827298
   27          1             0        1.678780    2.753235    3.275696
   28          1             0        0.780733    1.283667    3.632597
   29          6             0       -0.816501   -3.218553    0.890455
   30          1             0       -1.857003   -2.997144    0.607105
   31          1             0       -0.840535   -4.164589    1.459959
   32          6             0        0.816501    3.218553    0.890455
   33          1             0        0.840535    4.164589    1.459959
   34          1             0        1.857003    2.997144    0.607105
   35          6             0        3.218553   -0.816501    0.890455
   36          1             0        2.997144   -1.857003    0.607105
   37          1             0        4.164589   -0.840535    1.459959
   38          6             0        0.000000    3.398485   -0.370954
   39          6             0        0.000000   -3.398485   -0.370954
   40          6             0        3.398485    0.000000   -0.370954
   41          6             0       -3.218553    0.816501    0.890455
   42          1             0       -4.164589    0.840535    1.459959
   43          1             0       -2.997144    1.857003    0.607105
   44          6             0       -3.398485    0.000000   -0.370954
   45          6             0        0.173540   -4.668517   -0.927009
   46          1             0       -0.238769   -5.545387   -0.424272
   47          6             0        0.876770   -4.804181   -2.125913
   48          6             0        1.400824   -3.658434   -2.729523
   49          1             0        1.962700   -3.713346   -3.662966
   50          6             0        1.200892   -2.429770   -2.106942
   51          1             0        1.611089   -1.518802   -2.547039
   52          1             0        1.019829   -5.788915   -2.575770
   53          7             0        0.510780   -2.281977   -0.950816
   54          7             0        2.281977    0.510780   -0.950816
   55          7             0       -0.510780    2.281977   -0.950816
   56          7             0       -2.281977   -0.510780   -0.950816
   57          6             0        4.668517    0.173540   -0.927009
   58          1             0        5.545387   -0.238769   -0.424272
   59          6             0        4.804181    0.876770   -2.125913
   60          1             0        5.788915    1.019829   -2.575770
   61          6             0        3.658434    1.400824   -2.729523
   62          1             0        3.713346    1.962700   -3.662966
   63          6             0        2.429770    1.200892   -2.106942
   64          1             0        1.518802    1.611089   -2.547039
   65          6             0       -0.173540    4.668517   -0.927009
   66          1             0        0.238769    5.545387   -0.424272
   67          6             0       -0.876770    4.804181   -2.125913
   68          1             0       -1.019829    5.788915   -2.575770
   69          6             0       -1.400824    3.658434   -2.729523
   70          1             0       -1.962700    3.713346   -3.662966
   71          6             0       -1.200892    2.429770   -2.106942
   72          1             0       -1.611089    1.518802   -2.547039
   73          6             0       -4.668517   -0.173540   -0.927009
   74          1             0       -5.545387    0.238769   -0.424272
   75          6             0       -4.804181   -0.876770   -2.125913
   76          1             0       -5.788915   -1.019829   -2.575770
   77          6             0       -3.658434   -1.400824   -2.729523
   78          6             0       -2.429770   -1.200892   -2.106942
   79          1             0       -3.713346   -1.962700   -3.662966
   80          1             0       -1.518802   -1.611089   -2.547039
   81         63             0        0.000000    0.000000    0.192747
 ---------------------------------------------------------------------

 SCF Done:  E(UB+HF-LYP) =  -2391.82500899     A.U. after   14 cycles

 Alpha virt. eigenvalues --    0.60086   0.60351   0.60523   0.60595   0.60595
 Alpha virt. eigenvalues --    0.61827   0.62107   0.62107   0.62271   0.62735
 Alpha virt. eigenvalues --    0.63594   0.63802   0.63802   0.63818   0.64368

  Beta  occ. eigenvalues --  -14.66809 -14.66809 -14.66809 -14.66809 -14.65138
  Beta  occ. eigenvalues --  -14.65138 -14.65138 -14.65138 -13.75239 -10.53586
  Beta  occ. eigenvalues --  -10.53586 -10.53586 -10.53586 -10.52488 -10.52488
  Beta  occ. eigenvalues --  -10.52488 -10.52488 -10.52355 -10.52355 -10.52355
  Beta  occ. eigenvalues --  -10.52355 -10.52269 -10.52269 -10.52269 -10.52269
  Beta  occ. eigenvalues --  -10.52075 -10.52075 -10.52075 -10.52075 -10.49265
  Beta  occ. eigenvalues --  -10.49265 -10.49265 -10.49265 -10.48624 -10.48624
  Beta  occ. eigenvalues --  -10.48624 -10.48624 -10.48336 -10.48336 -10.48336
  Beta  occ. eigenvalues --  -10.48335  -9.94103  -9.85974  -9.85974  -5.34359
  Beta  occ. eigenvalues --   -5.29659  -5.29659  -5.25649  -5.25630  -2.05032
  Beta  occ. eigenvalues --   -1.28407  -1.28004  -1.28004  -1.27157  -1.26608
  Beta  occ. eigenvalues --   -1.25049  -1.25049  -1.23989  -1.23486  -1.22037
  Beta  occ. eigenvalues --   -1.22037  -1.10529  -1.10454  -1.10402  -1.10402
  Beta  occ. eigenvalues --   -1.10040  -1.09884  -1.09884  -1.09569  -1.08882
  Beta  occ. eigenvalues --   -1.05638  -1.05638  -1.03905  -1.00560  -0.99982
  Beta  occ. eigenvalues --   -0.99982  -0.96645  -0.95289  -0.94046  -0.94002
  Beta  occ. eigenvalues --   -0.94002  -0.93850  -0.92570  -0.92570  -0.91735
  Beta  occ. eigenvalues --   -0.90975  -0.89623  -0.89623  -0.87169  -0.83961
  Beta  occ. eigenvalues --   -0.83531  -0.82826  -0.82826  -0.82326  -0.81165
  Beta  occ. eigenvalues --   -0.81144  -0.81144  -0.80245  -0.79456  -0.79105
  Beta  occ. eigenvalues --   -0.79105  -0.78645  -0.78645  -0.78588  -0.77604
  Beta  occ. eigenvalues --   -0.76677  -0.76389  -0.76389  -0.76208  -0.75378
  Beta  occ. eigenvalues --   -0.75331  -0.75149  -0.75149  -0.73347  -0.73085
  Beta  occ. eigenvalues --   -0.72728  -0.72728  -0.71532  -0.71532  -0.71408
  Beta  occ. eigenvalues --   -0.71407  -0.70910  -0.70806  -0.70806  -0.70664
  Beta  occ. eigenvalues --   -0.69974  -0.69974  -0.69941  -0.69774  -0.69187
  Beta  occ. eigenvalues --   -0.69140  -0.69140  -0.67518  -0.66904  -0.66580
  Beta  occ. eigenvalues --   -0.66521  -0.66521  -0.66151  -0.65616  -0.65616
  Beta  occ. eigenvalues --   -0.65232  -0.62452  -0.61604  -0.61149  -0.61149
  Beta  occ. eigenvalues --   -0.59911  -0.59585  -0.59585  -0.59373  -0.59060
  Beta  occ. eigenvalues --   -0.58838  -0.58838  -0.58482  -0.56721  -0.56501
  Beta  occ. eigenvalues --   -0.56501  -0.56332
  Beta virt. eigenvalues --   -0.36741  -0.35990  -0.35093  -0.35093  -0.35093
  Beta virt. eigenvalues --   -0.33529  -0.33529  -0.33372  -0.32310  -0.32310
  Beta virt. eigenvalues --   -0.31978  -0.31628  -0.31050  -0.30426  -0.29295

 Mulliken atomic charges:
              1
     1  C   -0.124766
     2  H    0.139376
     3  H    0.162206
     4  C   -0.138453
     5  H    0.135975
     6  H    0.162590
     7  N   -0.331806
     8  N   -0.331806
     9  C   -0.138453
    10  H    0.162590
    11  H    0.135975
    12  C   -0.124766
    13  H    0.162206
    14  H    0.139376
    15  C   -0.124766
    16  H    0.139376
    17  H    0.162206
    18  C   -0.138453
    19  H    0.162590
    20  H    0.135975
    21  N   -0.331806
    22  N   -0.331806
    23  C   -0.124766
    24  H    0.139376
    25  H    0.162206
    26  C   -0.138453
    27  H    0.162590
    28  H    0.135975
    29  C   -0.104997
    30  H    0.151140
    31  H    0.150423
    32  C   -0.104997
    33  H    0.150423
    34  H    0.151140
    35  C   -0.104997
    36  H    0.151140
    37  H    0.150423
    38  C    0.093299
    39  C    0.093299
    40  C    0.093299
    41  C   -0.104997
    42  H    0.150423
    43  H    0.151140
    44  C    0.093299
    45  C   -0.090884
    46  H    0.166456
    47  C   -0.088973
    48  C   -0.040624
    49  H    0.177588
    50  C   -0.104673
    51  H    0.151799
    52  H    0.177944
    53  N   -0.337301
    54  N   -0.337301
    55  N   -0.337301
    56  N   -0.337301
    57  C   -0.090884
    58  H    0.166456
    59  C   -0.088973
    60  H    0.177944
    61  C   -0.040624
    62  H    0.177588
    63  C   -0.104673
    64  H    0.151799
    65  C   -0.090884
    66  H    0.166456
    67  C   -0.088973
    68  H    0.177944
    69  C   -0.040624
    70  H    0.177588
    71  C   -0.104673
    72  H    0.151799
    73  C   -0.090884
    74  H    0.166456
    75  C   -0.088973
    76  H    0.177944
    77  C   -0.040624
    78  C   -0.104673
    79  H    0.177588
    80  H    0.151799
    81  Eu   1.774726
 Sum of Mulliken charges=   3.00000

 Dipole moment (field-independent basis, Debye):
    X=     0.0000    Y=     0.0000    Z=    -0.5153  Tot=     0.5153
 Quadrupole moment (field-independent basis, Debye-Ang):
   XX=  -127.9480   YY=  -127.9480   ZZ=  -159.0800
   XY=     0.0000   XZ=     0.0000   YZ=     0.0000

 Normal termination of Gaussian 03 at Thu Mar  6 05:55:34 2008.
